                         Program Version 4.2.1 -  RELEASE  -
|  1> ! UHF MP2 6-311+G(d,p) Freq NoFrozenCore TightSCF Grid4 FinalGrid5 PrintBasis PrintMOs NBO
|  2> %maxcore 3000
|  3>
|  4> *xyz 0 2
|  5> Cl       0.000000000      0.000000000      0.000000000
|  6> *
|  7>
|  8> %pal
|  9>  nprocs 12
| 10> end
| 11>
| 12>                          ****END OF INPUT****

CARTESIAN COORDINATES (ANGSTROEM)
---------------------------------
  Cl     0.000000    0.000000    0.000000

 Total Charge           Charge          ....    0
 Multiplicity           Mult            ....    2
 Number of Electrons    NEL             ....   17
 Basis Dimension        Dim             ....   30

ORBITAL ENERGIES
----------------
                 SPIN UP ORBITALS
  NO   OCC          E(Eh)            E(eV)
   0   1.0000    -104.888409     -2854.1587
   1   1.0000     -10.612439      -288.7791
   2   1.0000      -8.098999      -220.3850
   3   1.0000      -8.073609      -219.6941
   4   1.0000      -8.073609      -219.6941
   5   1.0000      -1.136049       -30.9135
   6   1.0000      -0.578908       -15.7529
   7   1.0000      -0.504155       -13.7188
   8   1.0000      -0.504155       -13.7188
   9   0.0000       0.106658         2.9023
  10   0.0000       0.114240         3.1086
  11   0.0000       0.122964         3.3460
  12   0.0000       0.122964         3.3460
  13   0.0000       0.550840        14.9891

                 SPIN DOWN ORBITALS
  NO   OCC          E(Eh)            E(eV)
   0   1.0000    -104.877255     -2853.8552
   1   1.0000     -10.600927      -288.4659
   2   1.0000      -8.067637      -219.5316
   3   1.0000      -8.067637      -219.5316
   4   1.0000      -8.049856      -219.0477
   5   1.0000      -1.013620       -27.5820
   6   1.0000      -0.478189       -13.0122
   7   1.0000      -0.478189       -13.0122
   8   0.0000      -0.047531        -1.2934
   9   0.0000       0.111943         3.0461
  10   0.0000       0.123892         3.3713
  11   0.0000       0.123892         3.3713
  12   0.0000       0.133497         3.6326

------------------
MOLECULAR ORBITALS
------------------
                      0         1         2         3         4         5
                 -104.88841 -10.61244  -8.09900  -8.07361  -8.07361  -1.13605
                   1.00000   1.00000   1.00000   1.00000   1.00000   1.00000
                  --------  --------  --------  --------  --------  --------
  0Cl  1s         0.411715  0.121993 -0.000000  0.000000 -0.000000  0.037154
  0Cl  2s         0.654658  0.331618 -0.000000  0.000000  0.000000  0.107463
  0Cl  3s         0.012138 -0.512565  0.000000 -0.000000 -0.000000 -0.212030
  0Cl  4s        -0.000928 -0.604807  0.000000 -0.000000  0.000000 -0.429088
  0Cl  5s         0.000197 -0.042930 -0.000000  0.000000 -0.000000  0.660281
  0Cl  6s        -0.000124  0.010506  0.000000  0.000000 -0.000000  0.567372
  0Cl  1pz        0.000000 -0.000000 -0.070650  0.060286  1.227971  0.000000
  0Cl  1px       -0.000000 -0.000000  1.185614 -0.319719  0.083986 -0.000000
  0Cl  1py        0.000000 -0.000000 -0.322737 -1.187725  0.039721 -0.000000
  0Cl  2pz        0.000000 -0.000000 -0.018787  0.016021  0.326329  0.000000
  0Cl  2px       -0.000000 -0.000000  0.315271 -0.084964  0.022319 -0.000000
  0Cl  2py        0.000000 -0.000000 -0.085820 -0.315634  0.010556 -0.000000
  0Cl  3pz       -0.000000  0.000000 -0.002887  0.002391  0.048694 -0.000000
  0Cl  3px        0.000000  0.000000  0.048446 -0.012678  0.003330  0.000000
  0Cl  3py       -0.000000  0.000000 -0.013187 -0.047098  0.001575  0.000000
  0Cl  4pz        0.000000 -0.000000  0.000130 -0.000102 -0.002071  0.000000
  0Cl  4px       -0.000000 -0.000000 -0.002179  0.000539 -0.000142  0.000000
  0Cl  4py       -0.000000 -0.000000  0.000593  0.002003 -0.000067 -0.000000
  0Cl  5pz       -0.000000  0.000000 -0.000068  0.000052  0.001062 -0.000000
  0Cl  5px        0.000000  0.000000  0.001147 -0.000276  0.000073 -0.000000
  0Cl  5py        0.000000  0.000000 -0.000312 -0.001027  0.000034 -0.000000
  0Cl  7s         0.000030 -0.002713 -0.000000 -0.000000  0.000000 -0.012076
  0Cl  6pz        0.000000 -0.000000  0.000028 -0.000021 -0.000433  0.000000
  0Cl  6px       -0.000000 -0.000000 -0.000473  0.000113 -0.000030  0.000000
  0Cl  6py        0.000000  0.000000  0.000129  0.000419 -0.000014  0.000000
  0Cl  1dz2       0.000000  0.000404  0.000000  0.000000  0.000000 -0.016240
  0Cl  1dxz       0.000000  0.000078  0.000000 -0.000000 -0.000000 -0.003142
  0Cl  1dyz      -0.000000 -0.000021  0.000000 -0.000000 -0.000000  0.000855
  0Cl  1dx2y2    -0.000000 -0.000607  0.000000 -0.000000  0.000000  0.024410
  0Cl  1dxy       0.000000  0.000357  0.000000 -0.000000  0.000000 -0.014353
                      6         7         8         9        10        11
                  -0.57891  -0.50416  -0.50416   0.10666   0.11424   0.12296
                   1.00000   1.00000   1.00000   0.00000   0.00000   0.00000
                  --------  --------  --------  --------  --------  --------
  0Cl  1s        -0.000000  0.000000 -0.000000 -0.009681  0.000000  0.000000
  0Cl  2s        -0.000000  0.000000 -0.000000 -0.029127  0.000000  0.000000
  0Cl  3s         0.000000 -0.000000  0.000000  0.066955 -0.000000 -0.000000
  0Cl  4s         0.000000  0.000000  0.000000  0.090390 -0.000000 -0.000000
  0Cl  5s        -0.000000 -0.000000  0.000000 -0.065389  0.000000  0.000000
  0Cl  6s        -0.000000  0.000000 -0.000000 -0.892812  0.000000  0.000000
  0Cl  1pz        0.020204 -0.342247 -0.002963 -0.000000 -0.004836 -0.087251
  0Cl  1px       -0.339058 -0.018208 -0.090205  0.000000  0.081150 -0.004886
  0Cl  1py        0.092295  0.008032 -0.330731 -0.000000 -0.022090  0.001150
  0Cl  2pz        0.004874 -0.082012 -0.000710 -0.000000 -0.001358 -0.024517
  0Cl  2px       -0.081794 -0.004363 -0.021616  0.000000  0.022782 -0.001373
  0Cl  2py        0.022265  0.001925 -0.079253 -0.000000 -0.006201  0.000323
  0Cl  3pz       -0.014726  0.251062  0.002174  0.000000  0.005445  0.098542
  0Cl  3px        0.247121  0.013357  0.066172 -0.000000 -0.091383  0.005518
  0Cl  3py       -0.067269 -0.005892  0.242615  0.000000  0.024875 -0.001299
  0Cl  4pz       -0.036128  0.602522  0.005217  0.000000  0.001953  0.026050
  0Cl  4px        0.606289  0.032054  0.158805 -0.000000 -0.032782  0.001459
  0Cl  4py       -0.165038 -0.014141  0.582249  0.000000  0.008924 -0.000343
  0Cl  5pz       -0.018117  0.349461  0.003026  0.000000  0.043975  0.816346
  0Cl  5px        0.304030  0.018591  0.092106 -0.000000 -0.737974  0.045715
  0Cl  5py       -0.082760 -0.008202  0.337702  0.000000  0.200884 -0.010764
  0Cl  7s         0.000000 -0.000000 -0.000000  1.445647 -0.000000 -0.000000
  0Cl  6pz        0.002480 -0.037620 -0.000326 -0.000000 -0.086736 -1.533480
  0Cl  6px       -0.041619 -0.002001 -0.009915  0.000000  1.455559 -0.085875
  0Cl  6py        0.011329  0.000883 -0.036354 -0.000000 -0.396218  0.020220
  0Cl  1dz2      -0.000000 -0.000000 -0.000000  0.005534 -0.000000  0.000000
  0Cl  1dxz       0.000000  0.000000 -0.000000  0.001071 -0.000000 -0.000000
  0Cl  1dyz       0.000000  0.000000  0.000000 -0.000291 -0.000000 -0.000000
  0Cl  1dx2y2    -0.000000 -0.000000 -0.000000 -0.008318  0.000000  0.000000
  0Cl  1dxy      -0.000000  0.000000 -0.000000  0.004891 -0.000000  0.000000
                     12        13        14        15        16        17
                   0.12296   0.55084   0.58248   0.58248   0.98449   1.04519
                   0.00000   0.00000   0.00000   0.00000   0.00000   0.00000
                  --------  --------  --------  --------  --------  --------
  0Cl  1s        -0.000000  0.000000 -0.000000 -0.000000  0.033959 -0.008335
  0Cl  2s        -0.000000  0.000000 -0.000000  0.000000  0.093034 -0.023351
  0Cl  3s         0.000000 -0.000000  0.000000 -0.000000 -0.138350  0.039572
  0Cl  4s         0.000000 -0.000000  0.000000  0.000000 -0.674367  0.147798
  0Cl  5s        -0.000000  0.000000 -0.000000 -0.000000  2.385609 -0.506702
  0Cl  6s        -0.000000 -0.000000  0.000000  0.000000 -2.531396  0.485471
  0Cl  1pz       -0.000173  0.011052  0.195788 -0.005218  0.000000 -0.000000
  0Cl  1px        0.022945 -0.185466  0.009489 -0.051799  0.000000 -0.000000
  0Cl  1py        0.084330  0.050486 -0.008000 -0.189148 -0.000000 -0.000000
  0Cl  2pz       -0.000049  0.001812  0.031188 -0.000831  0.000000 -0.000000
  0Cl  2px        0.006447 -0.030408  0.001512 -0.008251  0.000000 -0.000000
  0Cl  2py        0.023696  0.008277 -0.001274 -0.030130 -0.000000 -0.000000
  0Cl  3pz        0.000195 -0.003033 -0.048226  0.001285 -0.000000  0.000000
  0Cl  3px       -0.025914  0.050904 -0.002337  0.012759 -0.000000 -0.000000
  0Cl  3py       -0.095242 -0.013857  0.001970  0.046590  0.000000  0.000000
  0Cl  4pz        0.000052 -0.063189 -1.126574  0.030024 -0.000000 -0.000000
  0Cl  4px       -0.006851  1.060403 -0.054602  0.298053 -0.000000  0.000000
  0Cl  4py       -0.025178 -0.288653  0.046031  1.088362  0.000000  0.000000
  0Cl  5pz        0.001618  0.127604  2.201734 -0.058677  0.000000  0.000000
  0Cl  5px       -0.214680 -2.141391  0.106711 -0.582503  0.000000 -0.000000
  0Cl  5py       -0.789010  0.582909 -0.089960 -2.127054 -0.000000  0.000000
  0Cl  7s         0.000000  0.000000 -0.000000 -0.000000  0.868595 -0.159783
  0Cl  6pz       -0.003040 -0.070019 -1.188845  0.031683 -0.000000  0.000000
  0Cl  6px        0.403270  1.175030 -0.057620  0.314527 -0.000000  0.000000
  0Cl  6py        1.482130 -0.319856  0.048575  1.148521  0.000000 -0.000000
  0Cl  1dz2      -0.000000 -0.000000  0.000000 -0.000000 -0.098818 -0.484791
  0Cl  1dxz      -0.000000 -0.000000 -0.000000 -0.000000 -0.019117 -0.093788
  0Cl  1dyz      -0.000000  0.000000 -0.000000  0.000000  0.005204  0.025530
  0Cl  1dx2y2    -0.000000 -0.000000  0.000000 -0.000000  0.148525  0.728646
  0Cl  1dxy      -0.000000 -0.000000 -0.000000 -0.000000 -0.087331 -0.428437
                     18        19        20        21        22        23
                   1.05921   1.05921   1.11409   1.11409   2.51525   2.56901
                   0.00000   0.00000   0.00000   0.00000   0.00000   0.00000
                  --------  --------  --------  --------  --------  --------
  0Cl  1s         0.000000 -0.000000 -0.000000 -0.000000  0.000000  0.000000
  0Cl  2s         0.000000 -0.000000 -0.000000 -0.000000  0.000000 -0.000000
  0Cl  3s        -0.000000  0.000000  0.000000  0.000000 -0.000000  0.000000
  0Cl  4s        -0.000000  0.000000  0.000000  0.000000  0.000000 -0.000000
  0Cl  5s         0.000000 -0.000000 -0.000000 -0.000000  0.000000  0.000000
  0Cl  6s        -0.000000  0.000000  0.000000  0.000000 -0.000000 -0.000000
  0Cl  1pz       -0.000000  0.000000  0.000000 -0.000000  0.044910  0.018230
  0Cl  1px       -0.000000  0.000000 -0.000000 -0.000000 -0.753668  0.206600
  0Cl  1py        0.000000  0.000000 -0.000000  0.000000  0.205156  0.754980
  0Cl  2pz       -0.000000  0.000000  0.000000 -0.000000  0.014785  0.005999
  0Cl  2px       -0.000000  0.000000  0.000000 -0.000000 -0.248112  0.067983
  0Cl  2py        0.000000  0.000000 -0.000000  0.000000  0.067539  0.248432
  0Cl  3pz        0.000000 -0.000000 -0.000000  0.000000 -0.113276 -0.045959
  0Cl  3px        0.000000  0.000000 -0.000000  0.000000  1.900944 -0.520863
  0Cl  3py        0.000000 -0.000000  0.000000 -0.000000 -0.517457 -1.903397
  0Cl  4pz       -0.000000  0.000000  0.000000 -0.000000  0.118578  0.047935
  0Cl  4px       -0.000000 -0.000000  0.000000  0.000000 -1.989934  0.543258
  0Cl  4py       -0.000000 -0.000000  0.000000 -0.000000  0.541681  1.985235
  0Cl  5pz       -0.000000 -0.000000 -0.000000  0.000000 -0.066604 -0.026718
  0Cl  5px        0.000000  0.000000 -0.000000  0.000000  1.117721 -0.302803
  0Cl  5py        0.000000  0.000000 -0.000000  0.000000 -0.304255 -1.106538
  0Cl  7s         0.000000 -0.000000 -0.000000 -0.000000 -0.000000 -0.000000
  0Cl  6pz        0.000000  0.000000  0.000000  0.000000  0.029159  0.011673
  0Cl  6px       -0.000000 -0.000000  0.000000 -0.000000 -0.489331  0.132288
  0Cl  6py       -0.000000 -0.000000  0.000000 -0.000000  0.133201  0.483422
  0Cl  1dz2       0.088794  0.044362  0.863111 -0.010240  0.000000  0.000000
  0Cl  1dxz      -0.864210 -0.414912  0.052181 -0.262858  0.000000  0.000000
  0Cl  1dyz       0.208659  0.166162 -0.026479 -0.963053 -0.000000 -0.000000
  0Cl  1dx2y2     0.181968 -0.474755  0.432058 -0.034223  0.000000  0.000000
  0Cl  1dxy       0.410617 -0.756887 -0.254836 -0.046462  0.000000  0.000000
                     24        25        26        27        28        29
                   2.56901  10.12496  26.53873  26.58323  26.58323 218.94573
                   0.00000   0.00000   0.00000   0.00000   0.00000   0.00000
                  --------  --------  --------  --------  --------  --------
  0Cl  1s        -0.000000 -0.115878 -0.000000 -0.000000  0.000000  1.541864
  0Cl  2s        -0.000000 -0.482075 -0.000000 -0.000000  0.000000 -1.913770
  0Cl  3s         0.000000  2.642325  0.000000  0.000000 -0.000000  1.432458
  0Cl  4s         0.000000 -3.072666 -0.000000 -0.000000  0.000000 -0.954093
  0Cl  5s        -0.000000  1.665933  0.000000  0.000000  0.000000  0.377460
  0Cl  6s         0.000000 -0.895162 -0.000000 -0.000000 -0.000000 -0.198444
  0Cl  1pz        0.781447  0.000000  0.195301 -3.393856  0.145514 -0.000000
  0Cl  1px        0.038557  0.000000 -3.277453 -0.150002  0.900953 -0.000000
  0Cl  1py       -0.029420 -0.000000  0.892157  0.191891  3.277910 -0.000000
  0Cl  2pz        0.257141  0.000000  0.197228 -3.427137  0.146941 -0.000000
  0Cl  2px        0.012688  0.000000 -3.309791 -0.151473  0.909788 -0.000000
  0Cl  2py       -0.009681 -0.000000  0.900960  0.193772  3.310054 -0.000000
  0Cl  3pz       -1.970122 -0.000000 -0.137962  2.397312 -0.102787  0.000000
  0Cl  3px       -0.097208  0.000000  2.315213  0.105957 -0.636404  0.000000
  0Cl  3py        0.074171 -0.000000 -0.630225 -0.135545 -2.315411  0.000000
  0Cl  4pz        2.054829 -0.000000  0.070787 -1.229442  0.052713 -0.000000
  0Cl  4px        0.101387 -0.000000 -1.187923 -0.054339  0.326375 -0.000000
  0Cl  4py       -0.077360  0.000000  0.323365  0.069513  1.187440 -0.000000
  0Cl  5pz       -1.145328  0.000000 -0.032741  0.568337 -0.024368  0.000000
  0Cl  5px       -0.056512  0.000000  0.549452  0.025119 -0.150874  0.000000
  0Cl  5py        0.043119 -0.000000 -0.149567 -0.032134 -0.548921  0.000000
  0Cl  7s         0.000000  0.243875 -0.000000  0.000000  0.000000  0.055167
  0Cl  6pz        0.500369 -0.000000  0.014485 -0.251390  0.010779 -0.000000
  0Cl  6px        0.024689  0.000000 -0.243081 -0.011111  0.066736 -0.000000
  0Cl  6py       -0.018838  0.000000  0.066169  0.014214  0.242802 -0.000000
  0Cl  1dz2      -0.000000  0.000719  0.000000  0.000000 -0.000000  0.000004
  0Cl  1dxz      -0.000000  0.000139  0.000000 -0.000000 -0.000000  0.000001
  0Cl  1dyz      -0.000000 -0.000038  0.000000 -0.000000 -0.000000 -0.000000
  0Cl  1dx2y2     0.000000 -0.001081  0.000000  0.000000  0.000000 -0.000006
  0Cl  1dxy       0.000000  0.000635 -0.000000  0.000000 -0.000000  0.000004

                      0         1         2         3         4         5
                 -104.87726 -10.60093  -8.06764  -8.06764  -8.04986  -1.01362
                   1.00000   1.00000   1.00000   1.00000   1.00000   1.00000
                  --------  --------  --------  --------  --------  --------
  0Cl  1s        -0.411758 -0.121945  0.000000  0.000000 -0.000000  0.036882
  0Cl  2s        -0.654677 -0.331507  0.000000 -0.000000 -0.000000  0.106958
  0Cl  3s        -0.011979  0.511625 -0.000000  0.000000  0.000000 -0.213531
  0Cl  4s         0.000850  0.606719 -0.000000 -0.000000  0.000000 -0.420293
  0Cl  5s        -0.000201  0.041281  0.000000 -0.000000 -0.000000  0.645959
  0Cl  6s         0.000113 -0.010621 -0.000000  0.000000 -0.000000  0.572248
  0Cl  1pz        0.000000  0.000000  0.298300 -1.192800 -0.070544  0.000000
  0Cl  1px        0.000000 -0.000000 -0.297261 -0.144653  1.183833 -0.000000
  0Cl  1py        0.000000  0.000000 -1.157326 -0.270288 -0.322252  0.000000
  0Cl  2pz        0.000000  0.000000  0.079284 -0.317028 -0.018767 -0.000000
  0Cl  2px        0.000000  0.000000 -0.079008 -0.038447  0.314948 -0.000000
  0Cl  2py        0.000000  0.000000 -0.307600 -0.071839 -0.085732  0.000000
  0Cl  3pz       -0.000000 -0.000000  0.011845 -0.047365 -0.003134 -0.000000
  0Cl  3px       -0.000000 -0.000000 -0.011804 -0.005744  0.052601  0.000000
  0Cl  3py       -0.000000 -0.000000 -0.045956 -0.010733 -0.014319 -0.000000
  0Cl  4pz       -0.000000  0.000000 -0.000587  0.002347  0.000299  0.000000
  0Cl  4px        0.000000  0.000000  0.000585  0.000285 -0.005022 -0.000000
  0Cl  4py        0.000000  0.000000  0.002277  0.000532  0.001367 -0.000000
  0Cl  5pz        0.000000 -0.000000  0.000290 -0.001162 -0.000148 -0.000000
  0Cl  5px       -0.000000 -0.000000 -0.000289 -0.000141  0.002488 -0.000000
  0Cl  5py       -0.000000  0.000000 -0.001127 -0.000263 -0.000677 -0.000000
  0Cl  7s        -0.000028  0.002681  0.000000  0.000000  0.000000 -0.003054
  0Cl  6pz       -0.000000  0.000000 -0.000120  0.000481  0.000065  0.000000
  0Cl  6px        0.000000  0.000000  0.000120  0.000058 -0.001089  0.000000
  0Cl  6py        0.000000 -0.000000  0.000466  0.000109  0.000296  0.000000
  0Cl  1dz2       0.000009  0.000141  0.000000  0.000000 -0.000000  0.017698
  0Cl  1dxz       0.000002  0.000027 -0.000000  0.000000 -0.000000  0.003424
  0Cl  1dyz      -0.000000 -0.000007 -0.000000  0.000000 -0.000000 -0.000932
  0Cl  1dx2y2    -0.000014 -0.000211  0.000000  0.000000 -0.000000 -0.026600
  0Cl  1dxy       0.000008  0.000124  0.000000  0.000000 -0.000000  0.015641
                      6         7         8         9        10        11
                  -0.47819  -0.47819  -0.04753   0.11194   0.12389   0.12389
                   1.00000   1.00000   0.00000   0.00000   0.00000   0.00000
                  --------  --------  --------  --------  --------  --------
  0Cl  1s        -0.000000 -0.000000  0.000000 -0.009669  0.000000 -0.000000
  0Cl  2s        -0.000000 -0.000000  0.000000 -0.029175  0.000000 -0.000000
  0Cl  3s         0.000000  0.000000 -0.000000  0.067766 -0.000000  0.000000
  0Cl  4s         0.000000  0.000000 -0.000000  0.086820 -0.000000  0.000000
  0Cl  5s        -0.000000  0.000000  0.000000 -0.045926  0.000000 -0.000000
  0Cl  6s        -0.000000 -0.000000  0.000000 -0.925429  0.000000 -0.000000
  0Cl  1pz       -0.024737  0.337960 -0.015748 -0.000000 -0.085882  0.024685
  0Cl  1px        0.087541  0.025257  0.264272  0.000000  0.001730  0.023964
  0Cl  1py        0.327007  0.018804 -0.071938 -0.000000  0.025155  0.082631
  0Cl  2pz       -0.005914  0.080804 -0.003760 -0.000000 -0.024038  0.006909
  0Cl  2px        0.020930  0.006039  0.063096  0.000000  0.000484  0.006707
  0Cl  2py        0.078185  0.004496 -0.017175 -0.000000  0.007041  0.023128
  0Cl  3pz        0.018197 -0.248606  0.010389  0.000000  0.096270 -0.027671
  0Cl  3px       -0.064395 -0.018580 -0.174338 -0.000000 -0.001939 -0.026863
  0Cl  3py       -0.240548 -0.013832  0.047457  0.000000 -0.028197 -0.092626
  0Cl  4pz        0.043200 -0.590213  0.026967  0.000000  0.026262 -0.007548
  0Cl  4px       -0.152881 -0.044109 -0.452545 -0.000000 -0.000529 -0.007328
  0Cl  4py       -0.571083 -0.032839  0.123188  0.000000 -0.007692 -0.025268
  0Cl  5pz        0.026434 -0.361144  0.022544  0.000000  0.797405 -0.229196
  0Cl  5px       -0.093546 -0.026990 -0.378318 -0.000000 -0.016060 -0.222502
  0Cl  5py       -0.349439 -0.020094  0.102982  0.000000 -0.233557 -0.767218
  0Cl  7s        -0.000000  0.000000 -0.000000  1.455017 -0.000000  0.000000
  0Cl  6pz       -0.002458  0.033578  0.011132 -0.000000 -1.479278  0.425185
  0Cl  6px        0.008698  0.002509 -0.186810  0.000000  0.029793  0.412767
  0Cl  6py        0.032489  0.001868  0.050852 -0.000000  0.433274  1.423277
  0Cl  1dz2      -0.000000  0.000000  0.000000 -0.000438 -0.000000  0.000000
  0Cl  1dxz      -0.000000 -0.000000  0.000000 -0.000085 -0.000000 -0.000000
  0Cl  1dyz      -0.000000  0.000000 -0.000000  0.000023 -0.000000  0.000000
  0Cl  1dx2y2     0.000000  0.000000 -0.000000  0.000659 -0.000000 -0.000000
  0Cl  1dxy       0.000000  0.000000  0.000000 -0.000387  0.000000  0.000000
                     12        13        14        15        16        17
                   0.13350   0.58850   0.58850   0.61426   1.01259   1.12465
                   0.00000   0.00000   0.00000   0.00000   0.00000   0.00000
                  --------  --------  --------  --------  --------  --------
  0Cl  1s        -0.000000 -0.000000  0.000000  0.000000 -0.035143  0.000000
  0Cl  2s        -0.000000 -0.000000  0.000000  0.000000 -0.096349  0.000000
  0Cl  3s         0.000000  0.000000 -0.000000 -0.000000  0.143938 -0.000000
  0Cl  4s         0.000000  0.000000 -0.000000 -0.000000  0.694382 -0.000000
  0Cl  5s        -0.000000 -0.000000  0.000000  0.000000 -2.442876  0.000000
  0Cl  6s        -0.000000  0.000000 -0.000000 -0.000000  2.565577 -0.000000
  0Cl  1pz        0.008346  0.003208 -0.197635  0.013272 -0.000000  0.000000
  0Cl  1px       -0.140053 -0.051817 -0.011809 -0.222729 -0.000000 -0.000000
  0Cl  1py        0.038124 -0.191059 -0.000116  0.060629 -0.000000  0.000000
  0Cl  2pz        0.002220  0.000508 -0.031308  0.002233  0.000000  0.000000
  0Cl  2px       -0.037258 -0.008208 -0.001871 -0.037476 -0.000000 -0.000000
  0Cl  2py        0.010142 -0.030266 -0.000018  0.010201 -0.000000  0.000000
  0Cl  3pz       -0.007673 -0.000765  0.047101 -0.002839  0.000000 -0.000000
  0Cl  3px        0.128770  0.012349  0.002814  0.047636  0.000000  0.000000
  0Cl  3py       -0.035052  0.045534  0.000028 -0.012967  0.000000  0.000000
  0Cl  4pz       -0.006219 -0.018453  1.136661 -0.071004  0.000000 -0.000000
  0Cl  4px        0.104372  0.298017  0.067915  1.191557  0.000000  0.000000
  0Cl  4py       -0.028411  1.098843  0.000668 -0.324354 -0.000000  0.000000
  0Cl  5pz       -0.058098  0.035671 -2.197285  0.122201 -0.000000  0.000000
  0Cl  5px        0.974982 -0.576098 -0.131286 -2.050729 -0.000000 -0.000000
  0Cl  5py       -0.265400 -2.124180 -0.001292  0.558230  0.000000 -0.000000
  0Cl  7s         0.000000 -0.000000  0.000000  0.000000 -0.867852  0.000000
  0Cl  6pz        0.090364 -0.019199  1.182648 -0.064778  0.000000  0.000000
  0Cl  6px       -1.516457  0.310074  0.070662  1.087081  0.000000 -0.000000
  0Cl  6py        0.412796  1.143300  0.000696 -0.295915 -0.000000  0.000000
  0Cl  1dz2       0.000000  0.000000 -0.000000  0.000000 -0.004298 -0.853449
  0Cl  1dxz       0.000000  0.000000  0.000000 -0.000000 -0.000831 -0.015427
  0Cl  1dyz       0.000000 -0.000000 -0.000000 -0.000000  0.000226  0.159057
  0Cl  1dx2y2     0.000000  0.000000 -0.000000  0.000000  0.006459 -0.423208
  0Cl  1dxy      -0.000000 -0.000000  0.000000 -0.000000 -0.003798  0.258809
                     18        19        20        21        22        23
                   1.12465   1.15746   1.15746   1.17047   2.57902   2.57902
                   0.00000   0.00000   0.00000   0.00000   0.00000   0.00000
                  --------  --------  --------  --------  --------  --------
  0Cl  1s         0.000000  0.000000  0.000000 -0.001631  0.000000  0.000000
  0Cl  2s         0.000000  0.000000  0.000000 -0.004707  0.000000  0.000000
  0Cl  3s        -0.000000 -0.000000 -0.000000  0.009530 -0.000000 -0.000000
  0Cl  4s        -0.000000 -0.000000 -0.000000  0.020124 -0.000000  0.000000
  0Cl  5s         0.000000  0.000000  0.000000 -0.043921  0.000000  0.000000
  0Cl  6s        -0.000000 -0.000000 -0.000000  0.000752 -0.000000 -0.000000
  0Cl  1pz        0.000000 -0.000000  0.000000  0.000000 -0.018401 -0.782023
  0Cl  1px       -0.000000 -0.000000  0.000000 -0.000000 -0.206761 -0.038544
  0Cl  1py        0.000000 -0.000000 -0.000000 -0.000000 -0.755535  0.029595
  0Cl  2pz        0.000000  0.000000  0.000000  0.000000 -0.006054 -0.257288
  0Cl  2px       -0.000000 -0.000000  0.000000 -0.000000 -0.068025 -0.012681
  0Cl  2py        0.000000  0.000000 -0.000000 -0.000000 -0.248573  0.009737
  0Cl  3pz        0.000000  0.000000 -0.000000 -0.000000  0.046362  1.970276
  0Cl  3px        0.000000  0.000000 -0.000000  0.000000  0.520926  0.097110
  0Cl  3py       -0.000000  0.000000  0.000000 -0.000000  1.903540 -0.074562
  0Cl  4pz       -0.000000  0.000000 -0.000000  0.000000 -0.048299 -2.052616
  0Cl  4px        0.000000  0.000000  0.000000  0.000000 -0.542696 -0.101169
  0Cl  4py        0.000000  0.000000  0.000000  0.000000 -1.983091  0.077678
  0Cl  5pz       -0.000000  0.000000  0.000000 -0.000000  0.026857  1.141356
  0Cl  5px        0.000000 -0.000000 -0.000000 -0.000000  0.301766  0.056255
  0Cl  5py        0.000000 -0.000000 -0.000000 -0.000000  1.102697 -0.043193
  0Cl  7s         0.000000  0.000000  0.000000 -0.006074 -0.000000 -0.000000
  0Cl  6pz        0.000000  0.000000  0.000000 -0.000000 -0.011731 -0.498532
  0Cl  6px       -0.000000 -0.000000  0.000000  0.000000 -0.131808 -0.024571
  0Cl  6py        0.000000  0.000000  0.000000  0.000000 -0.481646  0.018866
  0Cl  1dz2      -0.129189  0.084769 -0.051640  0.494722  0.000000 -0.000000
  0Cl  1dxz      -0.267543 -0.826441  0.485804  0.095710  0.000000 -0.000000
  0Cl  1dyz      -0.950196  0.194015 -0.183047 -0.026053 -0.000000  0.000000
  0Cl  1dx2y2    -0.093489  0.221074  0.457854 -0.743573 -0.000000 -0.000000
  0Cl  1dxy      -0.010869  0.472540  0.719855  0.437214  0.000000  0.000000
                     24        25        26        27        28        29
                   2.59069  10.14256  26.56214  26.58824  26.58824 218.95175
                   0.00000   0.00000   0.00000   0.00000   0.00000   0.00000
                  --------  --------  --------  --------  --------  --------
  0Cl  1s        -0.000000  0.115879 -0.000000 -0.000000  0.000000  1.541858
  0Cl  2s        -0.000000  0.482097  0.000000 -0.000000  0.000000 -1.913777
  0Cl  3s         0.000000 -2.642351  0.000000  0.000000 -0.000000  1.432450
  0Cl  4s        -0.000000  3.072637 -0.000000 -0.000000  0.000000 -0.954096
  0Cl  5s        -0.000000 -1.665730  0.000000  0.000000 -0.000000  0.377452
  0Cl  6s        -0.000000  0.893263 -0.000000 -0.000000  0.000000 -0.198430
  0Cl  1pz       -0.045774 -0.000000  0.195292 -3.392620 -0.172287 -0.000000
  0Cl  1px        0.768158 -0.000000 -3.277308 -0.142890 -0.902113 -0.000000
  0Cl  1py       -0.209101  0.000000  0.892118  0.217747 -3.276311 -0.000000
  0Cl  2pz       -0.015018 -0.000000  0.197224 -3.425873 -0.173976 -0.000000
  0Cl  2px        0.252024 -0.000000 -3.309732 -0.144291 -0.910955 -0.000000
  0Cl  2py       -0.068604  0.000000  0.900944  0.219881 -3.308423 -0.000000
  0Cl  3pz        0.113655  0.000000 -0.137937  2.396434  0.121698  0.000000
  0Cl  3px       -1.907308 -0.000000  2.314805  0.100933  0.637222  0.000000
  0Cl  3py        0.519189 -0.000000 -0.630114 -0.153809  2.314277  0.000000
  0Cl  4pz       -0.116464  0.000000  0.070727 -1.228808 -0.062402 -0.000000
  0Cl  4px        1.954442  0.000000 -1.186907 -0.051755 -0.326746 -0.000000
  0Cl  4py       -0.532020 -0.000000  0.323089  0.078868 -1.186681 -0.000000
  0Cl  5pz        0.064548 -0.000000 -0.032705  0.568004  0.028845  0.000000
  0Cl  5px       -1.083213 -0.000000  0.548848  0.023923  0.151035  0.000000
  0Cl  5py        0.294862  0.000000 -0.149402 -0.036456  0.548531  0.000000
  0Cl  7s         0.000000 -0.243346 -0.000000  0.000000 -0.000000  0.055162
  0Cl  6pz       -0.028226  0.000000  0.014469 -0.251242 -0.012759 -0.000000
  0Cl  6px        0.473677 -0.000000 -0.242809 -0.010582 -0.066806 -0.000000
  0Cl  6py       -0.128940 -0.000000  0.066095  0.016125 -0.242628 -0.000000
  0Cl  1dz2      -0.000000  0.000137 -0.000000  0.000000 -0.000000  0.000002
  0Cl  1dxz       0.000000  0.000027  0.000000 -0.000000  0.000000  0.000000
  0Cl  1dyz      -0.000000 -0.000007 -0.000000  0.000000  0.000000 -0.000000
  0Cl  1dx2y2    -0.000000 -0.000206  0.000000  0.000000  0.000000 -0.000004
  0Cl  1dxy      -0.000000  0.000121 -0.000000 -0.000000 -0.000000  0.000002

MULLIKEN ATOMIC CHARGES AND SPIN POPULATIONS
--------------------------------------------
   0 Cl:   -0.000000    1.000000
Sum of atomic charges         :   -0.0000000

LOEWDIN ATOMIC CHARGES AND SPIN POPULATIONS
-------------------------------------------
   0 Cl:   -0.000000    1.000000

MP2 TOTAL ENERGY:     -459.635375613 Eh
FINAL SINGLE POINT ENERGY      -459.635375613369

DIPOLE MOMENT
-------------
                                X             Y             Z
Electronic contribution:      0.00000      -0.00000      -0.00000
Nuclear contribution   :      0.00000       0.00000       0.00000
                        -----------------------------------------
Total Dipole Moment    :      0.00000      -0.00000      -0.00000
                        -----------------------------------------
Magnitude (a.u.)       :      0.00000
Magnitude (Debye)      :      0.00000

VIBRATIONAL FREQUENCIES
-----------------------

Scaling factor for frequencies =  1.000000000  (already applied!)

   0:         0.00 cm**-1
   1:         0.00 cm**-1
   2:         0.00 cm**-1

IR SPECTRUM
-----------

 Mode    freq (cm**-1)   T**2         TX         TY         TZ
-------------------------------------------------------------------

--------------------------
THERMOCHEMISTRY AT 298.15K
--------------------------

Temperature         ... 298.15 K
Pressure            ... 1.00 atm
Total Mass          ... 35.45 AMU
The molecule is recognized as being linear

Throughout the following assumptions are being made:
  (1) The electronic state is orbitally nondegenerate
      but the spin degeneracy is treated
  (2) There are no thermally accessible electronically excited states
  (3) Hindered rotations indicated by low frequency modes are not
      treated as such but are treated as vibrations and this may
      cause some error
  (4) All equations used are the standard statistical mechanics
      equations for an ideal gas
  (5) All vibrations are strictly harmonic

freq.       0.00  E(vib)   ...       0.59
freq.       0.00  E(vib)   ...       0.59
freq.       0.00  E(vib)   ...       0.59

------------
INNER ENERGY
------------

The inner energy is: U= E(el) + E(ZPE) + E(vib) + E(rot) + E(trans)
    E(el)   - is the total energy from the electronic structure calculation
              = E(kin-el) + E(nuc-el) + E(el-el) + E(nuc-nuc)
    E(ZPE)  - the the zero temperature vibrational energy from the frequency calculation
    E(vib)  - the the finite temperature correction to E(ZPE) due to population
              of excited vibrational states
    E(rot)  - is the rotational thermal energy
    E(trans)- is the translational thermal energy

Summary of contributions to the inner energy U:
Electronic energy                ...   -459.63537561 Eh
Zero point energy                ...      0.00000003 Eh       0.00 kcal/mol
Thermal vibrational correction   ...      0.00283260 Eh       1.78 kcal/mol
Thermal rotational correction    ...      0.00000000 Eh       0.00 kcal/mol
Thermal translational correction ...      0.00141627 Eh       0.89 kcal/mol
-----------------------------------------------------------------------
Total thermal energy                   -459.63112671 Eh

Summary of corrections to the electronic energy:
(perhaps to be used in another calculation)
Total thermal correction                  0.00424887 Eh       2.67 kcal/mol
Non-thermal (ZPE) correction              0.00000003 Eh       0.00 kcal/mol
-----------------------------------------------------------------------
Total correction                          0.00424890 Eh       2.67 kcal/mol

--------
ENTHALPY
--------

The enthalpy is H = U + kB*T
                kB is Boltzmann's constant
Total free energy                 ...   -459.63112671 Eh
Thermal Enthalpy correction       ...      0.00094421 Eh       0.59 kcal/mol
-----------------------------------------------------------------------
Total Enthalpy                    ...   -459.63018251 Eh

Note: Rotational entropy computed according to Herzberg
Infrared and Raman Spectra, Chapter V,1, Van Nostrand Reinhold, 1945
Point Group:  Kh, Symmetry Number:   1
Rotational constants in cm-1:     0.000000     0.000000     0.000000

Vibrational entropy computed according to the QRRHO of S. Grimme
Chem.Eur.J. 2012 18 9955

-------
ENTROPY
-------

The entropy contributions are T*S = T*(S(el)+S(vib)+S(rot)+S(trans))
     S(el)   - electronic entropy
     S(vib)  - vibrational entropy
     S(rot)  - rotational entropy
     S(trans)- translational entropy
The entropies will be listed as mutliplied by the temperature to get
units of energy

Electronic entropy                ...      0.00065446 Eh      0.41 kcal/mol
Vibrational entropy               ...            -inf Eh      -inf kcal/mol
Rotational entropy                ...      0.00000000 Eh      0.00 kcal/mol
Translational entropy             ...      0.01740262 Eh     10.92 kcal/mol
-----------------------------------------------------------------------
Final entropy term                ...            -inf Eh      -inf kcal/mol

In case the symmetry of your molecule has not been determined correctly
or in case you have a reason to use a different symmetry number we print
out the resulting rotational entropy values for sn=1,12 :
 --------------------------------------------------------
|  sn= 1 | S(rot)=             -inf Eh      -inf kcal/mol|
|  sn= 2 | S(rot)=             -inf Eh      -inf kcal/mol|
|  sn= 3 | S(rot)=             -inf Eh      -inf kcal/mol|
|  sn= 4 | S(rot)=             -inf Eh      -inf kcal/mol|
|  sn= 5 | S(rot)=             -inf Eh      -inf kcal/mol|
|  sn= 6 | S(rot)=             -inf Eh      -inf kcal/mol|
|  sn= 7 | S(rot)=             -inf Eh      -inf kcal/mol|
|  sn= 8 | S(rot)=             -inf Eh      -inf kcal/mol|
|  sn= 9 | S(rot)=             -inf Eh      -inf kcal/mol|
|  sn=10 | S(rot)=             -inf Eh      -inf kcal/mol|
|  sn=11 | S(rot)=             -inf Eh      -inf kcal/mol|
|  sn=12 | S(rot)=             -inf Eh      -inf kcal/mol|
 --------------------------------------------------------

-------------------
GIBBS FREE ENERGY
-------------------

The Gibbs free energy is G = H - T*S

Total enthalpy                    ...   -459.63018251 Eh
Total entropy correction          ...             inf Eh       inf kcal/mol
-----------------------------------------------------------------------
Final Gibbs free energy         ...             inf Eh

For completeness - the Gibbs free energy minus the electronic energy
G-E(el)                           ...             inf Eh       inf kcal/mol

                             ****ORCA TERMINATED NORMALLY****
TOTAL RUN TIME: 0 days 0 hours 0 minutes 22 seconds 8 msec
