                         Program Version 4.2.1 -  RELEASE  -
|  1> ! DLPNO-CCSD(T) cc-pVTZ RIJCOSX AutoAux TightSCF Grid4 FinalGrid5 PrintBasis PrintMOs
|  2> %maxcore 1150
|  3>
|  4> * xyzfile 0 1 init.xyz
|  5>
|  6>                          ****END OF INPUT****

CARTESIAN COORDINATES (ANGSTROEM)
---------------------------------
  Ar     0.000000    0.000000    0.000000

 Total Charge           Charge          ....    0
 Multiplicity           Mult            ....    1
 Number of Electrons    NEL             ....   18
 Basis Dimension        Dim             ....   34

ORBITAL ENERGIES
----------------

  NO   OCC          E(Eh)            E(eV)
   0   2.0000    -118.609213     -3227.5208
   1   2.0000     -12.321027      -335.2722
   2   2.0000      -9.569926      -260.4109
   3   2.0000      -9.569926      -260.4109
   4   2.0000      -9.569925      -260.4109
   5   2.0000      -1.276510       -34.7356
   6   2.0000      -0.590145       -16.0587
   7   2.0000      -0.590145       -16.0587
   8   2.0000      -0.590145       -16.0587
   9   0.0000       0.550077        14.9683
  10   0.0000       0.550077        14.9683
  11   0.0000       0.550077        14.9684
  12   0.0000       0.706811        19.2333
  13   0.0000       0.728873        19.8337

------------------
MOLECULAR ORBITALS
------------------
                      0         1         2         3         4         5
                 -118.60921 -12.32103  -9.56993  -9.56993  -9.56993  -1.27651
                   2.00000   2.00000   2.00000   2.00000   2.00000   2.00000
                  --------  --------  --------  --------  --------  --------
  0Ar  1s        -1.000023  0.000001  0.000000  0.000000  0.000000 -0.000001
  0Ar  2s         0.000006  0.932658  0.000000  0.000000  0.000000 -0.000006
  0Ar  3s         0.000003  0.000000  0.000000  0.000000  0.000000 -0.648815
  0Ar  4s         0.000144  0.087907 -0.000000 -0.000000 -0.000000 -0.070485
  0Ar  5s         0.000022  0.002329 -0.000000 -0.000000  0.000000 -0.395996
  0Ar  1pz        0.000000 -0.000000 -0.149911  0.961152  0.002839 -0.000000
  0Ar  1px       -0.000000  0.000000  0.000327  0.002924 -0.972772 -0.000000
  0Ar  1py        0.000000 -0.000000  0.961156  0.149909  0.000774 -0.000000
  0Ar  2pz        0.000000  0.000000  0.000000 -0.000001 -0.000000 -0.000000
  0Ar  2px       -0.000000 -0.000000 -0.000000 -0.000000  0.000002 -0.000000
  0Ar  2py        0.000000  0.000000 -0.000002 -0.000000 -0.000000 -0.000000
  0Ar  3pz       -0.000000 -0.000000 -0.008734  0.055999  0.000165 -0.000000
  0Ar  3px        0.000000  0.000000  0.000019  0.000170 -0.056676  0.000000
  0Ar  3py       -0.000000 -0.000000  0.055999  0.008734  0.000045 -0.000000
  0Ar  4pz        0.000000 -0.000000 -0.000253  0.001625  0.000005  0.000000
  0Ar  4px        0.000000  0.000000  0.000001  0.000005 -0.001644 -0.000000
  0Ar  4py       -0.000000 -0.000000  0.001625  0.000253  0.000001  0.000000
  0Ar  1dz2       0.000000 -0.000000  0.000000  0.000000  0.000000  0.000000
  0Ar  1dxz      -0.000000  0.000000 -0.000000 -0.000000  0.000000 -0.000000
  0Ar  1dyz      -0.000000  0.000000  0.000000  0.000000  0.000000 -0.000000
  0Ar  1dx2y2     0.000000 -0.000000 -0.000000 -0.000000 -0.000000  0.000000
  0Ar  1dxy      -0.000000 -0.000000  0.000000 -0.000000  0.000000  0.000000
  0Ar  2dz2      -0.000000 -0.000000 -0.000000 -0.000000 -0.000000 -0.000000
  0Ar  2dxz      -0.000000  0.000000  0.000000  0.000000 -0.000000 -0.000000
  0Ar  2dyz       0.000000 -0.000000 -0.000000 -0.000000 -0.000000  0.000000
  0Ar  2dx2y2    -0.000000  0.000000  0.000000  0.000000  0.000000 -0.000000
  0Ar  2dxy      -0.000000  0.000000  0.000000  0.000000 -0.000000  0.000000
  0Ar  1f0        0.000000  0.000000  0.000000 -0.000001 -0.000000  0.000000
  0Ar  1f+1      -0.000000 -0.000000  0.000000  0.000000 -0.000001 -0.000000
  0Ar  1f-1       0.000000  0.000000  0.000001  0.000000  0.000000  0.000000
  0Ar  1f+2      -0.000000 -0.000000  0.000000 -0.000000 -0.000000 -0.000000
  0Ar  1f-2      -0.000000 -0.000000 -0.000000  0.000000  0.000000  0.000000
  0Ar  1f+3      -0.000000 -0.000000  0.000000  0.000000 -0.000001 -0.000000
  0Ar  1f-3       0.000000  0.000000 -0.000001 -0.000000 -0.000000  0.000000
                      6         7         8         9        10        11
                  -0.59015  -0.59015  -0.59014   0.55008   0.55008   0.55008
                   2.00000   2.00000   2.00000   0.00000   0.00000   0.00000
                  --------  --------  --------  --------  --------  --------
  0Ar  1s         0.000000 -0.000000  0.000000 -0.000000 -0.000000 -0.000000
  0Ar  2s         0.000000 -0.000000  0.000000 -0.000001 -0.000001 -0.000000
  0Ar  3s         0.000000 -0.000000  0.000000 -0.000002 -0.000001 -0.000000
  0Ar  4s        -0.000000  0.000000 -0.000000  0.000000  0.000000 -0.000000
  0Ar  5s        -0.000000  0.000000 -0.000000  0.000002  0.000002  0.000000
  0Ar  1pz        0.000001  0.000000 -0.000004 -0.009381 -0.404374 -0.000213
  0Ar  1px       -0.000000  0.000004  0.000000 -0.000068  0.000214 -0.404483
  0Ar  1py       -0.000004 -0.000000 -0.000001 -0.404374  0.009381  0.000073
  0Ar  2pz       -0.208694 -0.001707  0.545911 -0.026955 -1.161904 -0.000612
  0Ar  2px        0.002016 -0.584440 -0.001057 -0.000196  0.000616 -1.162216
  0Ar  2py        0.545910  0.001506  0.208698 -1.161904  0.026955  0.000210
  0Ar  3pz       -0.101008 -0.000826  0.264221 -0.001138 -0.049049 -0.000026
  0Ar  3px        0.000976 -0.282869 -0.000512 -0.000008  0.000026 -0.049062
  0Ar  3py        0.264221  0.000729  0.101010 -0.049049  0.001138  0.000009
  0Ar  4pz       -0.116077 -0.000950  0.303641  0.032172  1.386758  0.000730
  0Ar  4px        0.001122 -0.325071 -0.000588  0.000234 -0.000735  1.387132
  0Ar  4py        0.303640  0.000838  0.116080  1.386759 -0.032172 -0.000251
  0Ar  1dz2      -0.000000  0.000000  0.000000  0.000000  0.000000  0.000000
  0Ar  1dxz      -0.000000  0.000000 -0.000000  0.000000 -0.000000 -0.000000
  0Ar  1dyz      -0.000000  0.000000 -0.000000  0.000000  0.000000  0.000000
  0Ar  1dx2y2    -0.000000 -0.000000 -0.000000  0.000000 -0.000000  0.000000
  0Ar  1dxy       0.000000  0.000000 -0.000000 -0.000000  0.000000 -0.000000
  0Ar  2dz2      -0.000000 -0.000000 -0.000000  0.000000  0.000000 -0.000000
  0Ar  2dxz      -0.000000 -0.000000 -0.000000  0.000000 -0.000000 -0.000000
  0Ar  2dyz      -0.000000  0.000000 -0.000000  0.000000  0.000000  0.000000
  0Ar  2dx2y2    -0.000000  0.000000 -0.000000  0.000000 -0.000000  0.000000
  0Ar  2dxy       0.000000 -0.000000 -0.000000 -0.000000  0.000000 -0.000000
  0Ar  1f0       -0.000000 -0.000000  0.000001 -0.000000 -0.000001 -0.000000
  0Ar  1f+1      -0.000000  0.000001  0.000000  0.000000 -0.000000  0.000001
  0Ar  1f-1      -0.000001 -0.000000 -0.000000  0.000001 -0.000000 -0.000000
  0Ar  1f+2       0.000000  0.000000 -0.000000  0.000000  0.000000 -0.000000
  0Ar  1f-2      -0.000000  0.000000 -0.000000 -0.000000 -0.000000  0.000000
  0Ar  1f+3      -0.000000  0.000001  0.000000  0.000000 -0.000000  0.000001
  0Ar  1f-3       0.000001  0.000000  0.000000 -0.000001  0.000000  0.000000
                     12        13        14        15        16        17
                   0.70681   0.72887   0.72887   0.72887   0.72887   0.72887
                   0.00000   0.00000   0.00000   0.00000   0.00000   0.00000
                  --------  --------  --------  --------  --------  --------
  0Ar  1s        -0.178044  0.000000  0.000000  0.000000 -0.000000 -0.000000
  0Ar  2s        -1.096062  0.000002  0.000000  0.000000 -0.000001 -0.000002
  0Ar  3s        -1.903826  0.000004  0.000000  0.000000 -0.000001 -0.000003
  0Ar  4s        -0.000423  0.000000  0.000000  0.000000 -0.000000  0.000000
  0Ar  5s         1.966381 -0.000004 -0.000000 -0.000000  0.000002  0.000003
  0Ar  1pz        0.000000  0.000000 -0.000000  0.000000 -0.000000 -0.000000
  0Ar  1px        0.000000  0.000000  0.000000  0.000000 -0.000000  0.000000
  0Ar  1py        0.000000  0.000000  0.000000 -0.000000 -0.000000 -0.000000
  0Ar  2pz        0.000001  0.000001 -0.000000  0.000000 -0.000000 -0.000000
  0Ar  2px        0.000000  0.000000  0.000000  0.000000 -0.000000  0.000000
  0Ar  2py        0.000001  0.000001  0.000000 -0.000000 -0.000000 -0.000000
  0Ar  3pz        0.000000 -0.000000 -0.000000 -0.000000  0.000000  0.000000
  0Ar  3px        0.000000  0.000000  0.000000 -0.000000 -0.000000 -0.000000
  0Ar  3py        0.000000  0.000000 -0.000000 -0.000000  0.000000  0.000000
  0Ar  4pz       -0.000001 -0.000001  0.000000 -0.000000  0.000000  0.000000
  0Ar  4px       -0.000000 -0.000000 -0.000000 -0.000000  0.000000 -0.000000
  0Ar  4py       -0.000001 -0.000000 -0.000000  0.000000  0.000000  0.000000
  0Ar  1dz2       0.000002  0.017725 -0.000066  0.000208 -0.628734 -0.604678
  0Ar  1dxz      -0.000000  0.000098  0.023544 -0.872181 -0.000126 -0.000169
  0Ar  1dyz       0.000002  0.872075 -0.001814  0.000044 -0.001464  0.027086
  0Ar  1dx2y2    -0.000000 -0.020534 -0.000130 -0.000041 -0.604936  0.628401
  0Ar  1dxy      -0.000000 -0.001810 -0.872179 -0.023544  0.000138 -0.000109
  0Ar  2dz2       0.000000  0.003940 -0.000015  0.000046 -0.139768 -0.134421
  0Ar  2dxz      -0.000000  0.000022  0.005234 -0.193889 -0.000028 -0.000038
  0Ar  2dyz       0.000000  0.193865 -0.000403  0.000010 -0.000326  0.006021
  0Ar  2dx2y2    -0.000000 -0.004565 -0.000029 -0.000009 -0.134478  0.139694
  0Ar  2dxy      -0.000000 -0.000402 -0.193888 -0.005234  0.000031 -0.000024
  0Ar  1f0       -0.000000  0.000000 -0.000000  0.000000  0.000000  0.000000
  0Ar  1f+1       0.000000 -0.000000 -0.000000  0.000000 -0.000000 -0.000000
  0Ar  1f-1      -0.000000 -0.000000  0.000000 -0.000000  0.000000  0.000000
  0Ar  1f+2       0.000000  0.000000 -0.000000 -0.000000  0.000000 -0.000000
  0Ar  1f-2       0.000000  0.000000  0.000000  0.000000 -0.000000  0.000000
  0Ar  1f+3       0.000000 -0.000000  0.000000 -0.000000  0.000000 -0.000000
  0Ar  1f-3      -0.000000  0.000000  0.000000 -0.000000 -0.000000  0.000000
                     18        19        20        21        22        23
                   2.54734   2.54734   2.54734   2.54735   2.54735   2.90840
                   0.00000   0.00000   0.00000   0.00000   0.00000   0.00000
                  --------  --------  --------  --------  --------  --------
  0Ar  1s        -0.000000  0.000000 -0.000000 -0.000000  0.000000  0.000000
  0Ar  2s        -0.000000  0.000000 -0.000000 -0.000000  0.000001  0.000000
  0Ar  3s        -0.000000  0.000000 -0.000000 -0.000000  0.000001  0.000000
  0Ar  4s         0.000000 -0.000000  0.000000  0.000000 -0.000001 -0.000000
  0Ar  5s         0.000000 -0.000000  0.000000  0.000000 -0.000000 -0.000000
  0Ar  1pz        0.000000  0.000008 -0.000000  0.000004  0.000006 -1.301770
  0Ar  1px       -0.000003  0.000000 -0.000009 -0.000000 -0.000000  0.000081
  0Ar  1py       -0.000000  0.000001 -0.000000  0.000008  0.000001 -0.977269
  0Ar  2pz        0.000000  0.000011 -0.000000  0.000005  0.000007 -1.688855
  0Ar  2px       -0.000003  0.000000 -0.000012 -0.000000 -0.000000  0.000105
  0Ar  2py       -0.000000  0.000002 -0.000000  0.000010  0.000001 -1.267863
  0Ar  3pz       -0.000000 -0.000010  0.000000 -0.000005 -0.000007  1.558556
  0Ar  3px        0.000003 -0.000000  0.000011  0.000000  0.000000 -0.000097
  0Ar  3py        0.000000 -0.000002  0.000000 -0.000009 -0.000001  1.170045
  0Ar  4pz       -0.000000 -0.000004  0.000000 -0.000002 -0.000003  0.593160
  0Ar  4px        0.000001 -0.000000  0.000004  0.000000  0.000000 -0.000037
  0Ar  4py        0.000000 -0.000001  0.000000 -0.000003 -0.000000  0.445299
  0Ar  1dz2       0.000003  0.010568 -0.000078  0.867665  0.177961  0.000005
  0Ar  1dxz      -0.216642 -0.000691  0.858890  0.000071  0.000078 -0.000000
  0Ar  1dyz      -0.000528  0.885701  0.000581 -0.008977 -0.008827  0.000004
  0Ar  1dx2y2     0.000095 -0.006842  0.000083  0.178048 -0.867684 -0.000002
  0Ar  1dxy       0.858890  0.000370  0.216643 -0.000010  0.000109 -0.000000
  0Ar  2dz2      -0.000004 -0.014652  0.000108 -1.202983 -0.246735 -0.000007
  0Ar  2dxz       0.300365  0.000958 -1.190815 -0.000098 -0.000108  0.000000
  0Ar  2dyz       0.000731 -1.227988 -0.000805  0.012447  0.012238 -0.000006
  0Ar  2dx2y2    -0.000131  0.009487 -0.000114 -0.246856  1.203010  0.000003
  0Ar  2dxy      -1.190815 -0.000514 -0.300366  0.000014 -0.000151  0.000000
  0Ar  1f0       -0.000000 -0.000000  0.000000  0.000000  0.000000  0.000350
  0Ar  1f+1      -0.000000  0.000000  0.000000 -0.000000 -0.000000  0.000000
  0Ar  1f-1       0.000000  0.000000  0.000000  0.000000 -0.000000 -0.000157
  0Ar  1f+2       0.000000 -0.000000 -0.000000  0.000000 -0.000000  0.000005
  0Ar  1f-2       0.000000 -0.000000  0.000000  0.000000  0.000000  0.000000
  0Ar  1f+3       0.000000  0.000000  0.000000  0.000000 -0.000000  0.000000
  0Ar  1f-3       0.000000  0.000000 -0.000000 -0.000000  0.000000  0.000201
                     24        25        26        27        28        29
                   2.90840   2.90840   2.92445   2.92445   2.92445   2.92445
                   0.00000   0.00000   0.00000   0.00000   0.00000   0.00000
                  --------  --------  --------  --------  --------  --------
  0Ar  1s        -0.000000 -0.000000  0.000000 -0.000000  0.000000 -0.000000
  0Ar  2s        -0.000000 -0.000000  0.000000 -0.000001  0.000000 -0.000001
  0Ar  3s        -0.000000 -0.000000  0.000000 -0.000001  0.000000 -0.000001
  0Ar  4s         0.000000  0.000000 -0.000000  0.000001 -0.000000  0.000001
  0Ar  5s         0.000000 -0.000000 -0.000000  0.000000  0.000000  0.000000
  0Ar  1pz       -0.977268 -0.001280 -0.000002  0.000259  0.000002 -0.000361
  0Ar  1px        0.002024 -1.627776  0.000001  0.000000 -0.000238 -0.000002
  0Ar  1py        1.301769  0.001570 -0.000001  0.000163 -0.000002  0.000276
  0Ar  2pz       -1.267862 -0.001661 -0.000002  0.000335  0.000003 -0.000467
  0Ar  2px        0.002626 -2.111800  0.000001  0.000000 -0.000307 -0.000002
  0Ar  2py        1.688854  0.002037 -0.000002  0.000210 -0.000003  0.000357
  0Ar  3pz        1.170044  0.001533  0.000002 -0.000310 -0.000003  0.000431
  0Ar  3px       -0.002424  1.948871 -0.000001 -0.000000  0.000284  0.000002
  0Ar  3py       -1.558555 -0.001880  0.000002 -0.000195  0.000003 -0.000330
  0Ar  4pz        0.445299  0.000583  0.000001 -0.000118 -0.000001  0.000164
  0Ar  4px       -0.000922  0.741707 -0.000000 -0.000000  0.000108  0.000001
  0Ar  4py       -0.593159 -0.000716  0.000001 -0.000074  0.000001 -0.000125
  0Ar  1dz2      -0.000002 -0.000000 -0.000000  0.000000 -0.000000  0.000000
  0Ar  1dxz      -0.000000 -0.000005  0.000000  0.000000  0.000000  0.000000
  0Ar  1dyz       0.000002  0.000000 -0.000000  0.000000  0.000000 -0.000000
  0Ar  1dx2y2    -0.000002  0.000000  0.000000 -0.000000 -0.000000  0.000000
  0Ar  1dxy       0.000000 -0.000003  0.000000  0.000000 -0.000000 -0.000000
  0Ar  2dz2       0.000002  0.000000  0.000000 -0.000000  0.000000 -0.000000
  0Ar  2dxz       0.000000  0.000006 -0.000000 -0.000000 -0.000000 -0.000000
  0Ar  2dyz      -0.000003 -0.000000  0.000000 -0.000001 -0.000000  0.000000
  0Ar  2dx2y2     0.000003 -0.000000 -0.000000  0.000000  0.000000 -0.000000
  0Ar  2dxy      -0.000000  0.000004 -0.000000 -0.000000  0.000000  0.000000
  0Ar  1f0        0.000264  0.000000 -0.002565  0.355375  0.003318 -0.494654
  0Ar  1f+1       0.000000 -0.000265 -0.071510 -0.000943 -0.548739 -0.003403
  0Ar  1f-1       0.000210  0.000000  0.005946 -0.703611  0.004378 -0.676135
  0Ar  1f+2       0.000005  0.000000 -0.004623  0.562702  0.003114 -0.545301
  0Ar  1f-2      -0.000000  0.000002 -0.996251 -0.008158  0.079467  0.000211
  0Ar  1f+3       0.000000 -0.000350  0.047979  0.000159  0.832184  0.005286
  0Ar  1f-3      -0.000269 -0.000000  0.002034 -0.248874 -0.000594 -0.027690
                     30        31        32        33
                   2.92445   2.92445   2.92445   5.40276
                   0.00000   0.00000   0.00000   0.00000
                  --------  --------  --------  --------
  0Ar  1s         0.000000  0.000000 -0.000000 -0.860161
  0Ar  2s         0.000000  0.000001 -0.000000 -4.321989
  0Ar  3s         0.000000  0.000001 -0.000000 -3.521395
  0Ar  4s        -0.000000 -0.000001  0.000000  3.804759
  0Ar  5s        -0.000000 -0.000000  0.000000  1.395058
  0Ar  1pz        0.000003  0.000560 -0.000001 -0.000000
  0Ar  1px        0.000000 -0.000001 -0.000675  0.000000
  0Ar  1py       -0.000608  0.000101 -0.000000 -0.000000
  0Ar  2pz        0.000004  0.000725 -0.000001 -0.000000
  0Ar  2px        0.000000 -0.000001 -0.000873  0.000000
  0Ar  2py       -0.000786  0.000131 -0.000000 -0.000000
  0Ar  3pz       -0.000004 -0.000670  0.000001  0.000000
  0Ar  3px       -0.000000  0.000001  0.000808 -0.000000
  0Ar  3py        0.000727 -0.000121  0.000000  0.000000
  0Ar  4pz       -0.000001 -0.000254  0.000000  0.000000
  0Ar  4px       -0.000000  0.000000  0.000306 -0.000000
  0Ar  4py        0.000276 -0.000046  0.000000  0.000000
  0Ar  1dz2      -0.000000 -0.000000  0.000000 -0.000000
  0Ar  1dxz      -0.000000 -0.000000 -0.000000 -0.000000
  0Ar  1dyz      -0.000000  0.000000 -0.000000  0.000000
  0Ar  1dx2y2    -0.000000  0.000000 -0.000000 -0.000000
  0Ar  1dxy       0.000000  0.000000 -0.000000 -0.000000
  0Ar  2dz2       0.000000  0.000000 -0.000000 -0.000000
  0Ar  2dxz       0.000000  0.000000  0.000000  0.000000
  0Ar  2dyz       0.000000 -0.000000  0.000000 -0.000000
  0Ar  2dx2y2     0.000000 -0.000000  0.000000  0.000000
  0Ar  2dxy      -0.000000 -0.000000  0.000000  0.000000
  0Ar  1f0        0.006213  0.793075 -0.000828  0.000000
  0Ar  1f+1       0.000203  0.001233  0.832921 -0.000000
  0Ar  1f-1       0.189927 -0.107917 -0.000050  0.000000
  0Ar  1f+2      -0.192253 -0.590780  0.000985 -0.000000
  0Ar  1f-2      -0.000012  0.000198 -0.033188  0.000000
  0Ar  1f+3      -0.000857  0.000483  0.552393 -0.000000
  0Ar  1f-3      -0.962770  0.101800 -0.000528  0.000000

MULLIKEN ATOMIC CHARGES
-----------------------
   0 Ar:   -0.000000
Sum of atomic charges:   -0.0000000

LOEWDIN ATOMIC CHARGES
----------------------
   0 Ar:   -0.000000

E(0)                                       ...   -526.813489822
E(0)                                       ...   -526.813489822
E(CORR)(strong-pairs)                      ...     -0.223835665
E(CORR)(weak-pairs)                        ...     -0.000000000
E(CORR)(corrected)                         ...     -0.223835665
E(TOT)                                     ...   -527.037325487
E(CCSD(T))                                 ...   -527.043524277
FINAL SINGLE POINT ENERGY      -527.043524277042

DIPOLE MOMENT
-------------
                                X             Y             Z
Electronic contribution:     -0.00000       0.00000       0.00000
Nuclear contribution   :      0.00000       0.00000       0.00000
                        -----------------------------------------
Total Dipole Moment    :     -0.00000       0.00000       0.00000
                        -----------------------------------------
Magnitude (a.u.)       :      0.00000
Magnitude (Debye)      :      0.00000

Rotational constants in cm-1:     0.000000     0.000000     0.000000
Rotational constants in MHz :     0.000000     0.000000     0.000000

                             ****ORCA TERMINATED NORMALLY****
TOTAL RUN TIME: 0 days 0 hours 0 minutes 5 seconds 457 msec
