                         Program Version 4.0.1.2 - RELEASE -
|  1> # acetate.xyz
|  2> ! PBEh3c Opt Freq
|  3>
|  4> * xyz -1 1
|  5> C        0.626425000     -1.307882000      0.000000000
|  6> C       -0.125726000     -0.008626000      0.000000000
|  7> H        1.270967000     -1.376605000      0.876774000
|  8> H        1.270967000     -1.376604000     -0.876774000
|  9> H       -0.068190000     -2.142124000      0.000000000
| 10> O       -1.318295000      0.110092000      0.000000000
| 11> O        0.710233000      1.038509000      0.000000000
| 12> *
| 13> %pal
| 14>  nprocs 4
| 15> end
| 16>
| 17>                          ****END OF INPUT****
 Total Charge           Charge          ....   -1
 Multiplicity           Mult            ....    1
 Number of Electrons    NEL             ....   32
Dispersion correction           -0.002005545
FINAL SINGLE POINT ENERGY      -228.008357966067
Dispersion correction            ... done
Dispersion correction           -0.002004507
FINAL SINGLE POINT ENERGY      -228.021140482152
Dispersion correction            ... done
Dispersion correction           -0.002003113
FINAL SINGLE POINT ENERGY      -228.024455048872
Dispersion correction            ... done
FINAL SINGLE POINT ENERGY      -228.024751984405
Dispersion correction           -0.002000118
FINAL SINGLE POINT ENERGY      -228.024768183114
Dispersion correction            ... done
Dispersion correction           -0.001999960
FINAL SINGLE POINT ENERGY      -228.024774038232
Dispersion correction            ... done
                    ***********************HURRAY********************

CARTESIAN COORDINATES (ANGSTROEM)
---------------------------------
  C      0.623274   -1.310998   -0.000304
  C     -0.088447    0.084260   -0.001692
  H      1.273843   -1.402164    0.874964
  H      1.274403   -1.403522   -0.874996
  H     -0.077339   -2.148149    0.000128
  O     -1.329363    0.063508    0.000847
  O      0.690010    1.053824    0.001053

 Multiplicity           Mult            ....    1
 Number of Electrons    NEL             ....   32
 Basis Dimension        Dim             ....   66

ORBITAL ENERGIES
----------------

  NO   OCC          E(Eh)            E(eV)
   0   2.0000     -19.194053      -522.2967
   1   2.0000     -19.191627      -522.2307
   2   2.0000     -10.302442      -280.3437
   3   2.0000     -10.232824      -278.4493
   4   2.0000      -0.900352       -24.4998
   5   2.0000      -0.808069       -21.9887
   6   2.0000      -0.595497       -16.2043
   7   2.0000      -0.345531        -9.4024
   8   2.0000      -0.285865        -7.7788
   9   2.0000      -0.276976        -7.5369
  10   2.0000      -0.262890        -7.1536
  11   2.0000      -0.220785        -6.0079
  12   2.0000      -0.195729        -5.3261
  13   2.0000      -0.065281        -1.7764
  14   2.0000      -0.057655        -1.5689
  15   2.0000      -0.055506        -1.5104
  16   0.0000       0.320958         8.7337
  17   0.0000       0.348357         9.4793
  18   0.0000       0.397147        10.8069
  19   0.0000       0.425528        11.5792
  20   0.0000       0.448425        12.2023

MULLIKEN ATOMIC CHARGES
-----------------------
   0 C :   -0.751493
   1 C :    0.420632
   2 H :    0.167763
   3 H :    0.167369
   4 H :    0.162873
   5 O :   -0.580407
   6 O :   -0.586737
Sum of atomic charges:   -1.0000000

LOEWDIN ATOMIC CHARGES
----------------------
   0 C :   -0.449483
   1 C :    0.000802
   2 H :    0.105855
   3 H :    0.105659
   4 H :    0.096819
   5 O :   -0.424495
   6 O :   -0.435159

  Mayer bond orders larger than 0.1
B(  0-C ,  1-C ) :   0.8523 B(  0-C ,  2-H ) :   0.9430 B(  0-C ,  3-H ) :   0.9430
B(  0-C ,  4-H ) :   0.9352 B(  1-C ,  5-O ) :   1.8312 B(  1-C ,  6-O ) :   1.8095
B(  5-O ,  6-O ) :   0.1358

Dispersion correction           -0.001999970
FINAL SINGLE POINT ENERGY      -228.024772203370

DIPOLE MOMENT
-------------
                                X             Y             Z
Electronic contribution:     -1.83702       3.50493      -0.00182
Nuclear contribution   :      2.37201      -4.54186      -0.00020
                        -----------------------------------------
Total Dipole Moment    :      0.53499      -1.03693      -0.00202
                        -----------------------------------------
Magnitude (a.u.)       :      1.16680
Magnitude (Debye)      :      2.96578

Dispersion correction in the Hessian             ... done   (      1.8 sec)

VIBRATIONAL FREQUENCIES
-----------------------

   0:         0.00 cm**-1
   1:         0.00 cm**-1
   2:         0.00 cm**-1
   3:         0.00 cm**-1
   4:         0.00 cm**-1
   5:         0.00 cm**-1
   6:        45.52 cm**-1
   7:       447.51 cm**-1
   8:       645.43 cm**-1
   9:       651.04 cm**-1
  10:       901.74 cm**-1
  11:      1031.73 cm**-1
  12:      1073.96 cm**-1
  13:      1377.14 cm**-1
  14:      1452.62 cm**-1
  15:      1525.73 cm**-1
  16:      1543.08 cm**-1
  17:      1860.49 cm**-1
  18:      3082.56 cm**-1
  19:      3152.12 cm**-1
  20:      3177.19 cm**-1

IR SPECTRUM
-----------

 Mode    freq (cm**-1)   T**2         TX         TY         TZ
-------------------------------------------------------------------
   6:        45.52    0.317158  ( -0.001371   0.006030   0.563134)
   7:       447.51    1.520099  ( -0.717777  -1.002444  -0.000585)
   8:       645.43    5.313037  ( -1.122257   2.013110  -0.031053)
   9:       651.04    3.937576  ( -0.016315   0.027287   1.984078)
  10:       901.74   81.179862  (  3.900667  -8.121862  -0.003773)
  11:      1031.73    1.948481  (  1.390317  -0.124059  -0.010372)
  12:      1073.96   12.975435  ( -0.019873   0.033736  -3.601930)
  13:      1377.14    1.124866  (  0.664828   0.826317   0.008379)
  14:      1452.62  329.116170  (  8.132853 -16.216434  -0.012365)
  15:      1525.73   12.404528  ( -1.974376  -2.916568  -0.001010)
  16:      1543.08    1.637693  ( -0.001269   0.014028  -1.279646)
  17:      1860.49  506.150805  ( 20.316875   9.663095   0.001925)
  18:      3082.56   28.147948  ( -3.241899   4.199744   0.013607)
  19:      3152.12   54.831998  (  0.018963  -0.009784  -7.404832)
  20:      3177.19   67.350637  (  6.567535   4.921190  -0.002224)

--------------------------
THERMOCHEMISTRY AT 298.15K
--------------------------

Temperature         ... 298.15 K
Pressure            ... 1.00 atm
Total Mass          ... 59.04 AMU

Throughout the following assumptions are being made:
  (1) The electronic state is orbitally nondegenerate
  (2) There are no thermally accessible electronically excited states
  (3) Hindered rotations indicated by low frequency modes are not
      treated as such but are treated as vibrations and this may
      cause some error
  (4) All equations used are the standard statistical mechanics
      equations for an ideal gas
  (5) All vibrations are strictly harmonic

freq.      45.52  E(vib)   ...       0.53
freq.     447.51  E(vib)   ...       0.17
freq.     645.43  E(vib)   ...       0.09
freq.     651.04  E(vib)   ...       0.08
freq.     901.74  E(vib)   ...       0.03
freq.    1031.73  E(vib)   ...       0.02
freq.    1073.96  E(vib)   ...       0.02
freq.    1377.14  E(vib)   ...       0.01
freq.    1452.62  E(vib)   ...       0.00
freq.    1525.73  E(vib)   ...       0.00
freq.    1543.08  E(vib)   ...       0.00
freq.    1860.49  E(vib)   ...       0.00
freq.    3082.56  E(vib)   ...       0.00
freq.    3152.12  E(vib)   ...       0.00
freq.    3177.19  E(vib)   ...       0.00

------------
INNER ENERGY
------------

The inner energy is: U= E(el) + E(ZPE) + E(vib) + E(rot) + E(trans)
    E(el)   - is the total energy from the electronic structure calculation
              = E(kin-el) + E(nuc-el) + E(el-el) + E(nuc-nuc)
    E(ZPE)  - the the zero temperature vibrational energy from the frequency calculation
    E(vib)  - the the finite temperature correction to E(ZPE) due to population
              of excited vibrational states
    E(rot)  - is the rotational thermal energy
    E(trans)- is the translational thermal energy

Summary of contributions to the inner energy U:
Electronic energy                ...   -228.02477220 Eh
Zero point energy                ...      0.05004648 Eh      31.40 kcal/mol
Thermal vibrational correction   ...      0.00151846 Eh       0.95 kcal/mol
Thermal rotational correction    ...      0.00141627 Eh       0.89 kcal/mol
Thermal translational correction ...      0.00141627 Eh       0.89 kcal/mol
-----------------------------------------------------------------------
Total thermal energy                   -227.97037472 Eh

Summary of corrections to the electronic energy:
(perhaps to be used in another calculation)
Total thermal correction                  0.00435101 Eh       2.73 kcal/mol
Non-thermal (ZPE) correction              0.05004648 Eh      31.40 kcal/mol
-----------------------------------------------------------------------
Total correction                          0.05439748 Eh      34.13 kcal/mol

--------
ENTHALPY
--------

The enthalpy is H = U + kB*T
                kB is Boltzmann's constant
Total free energy                 ...   -227.97037472 Eh
Thermal Enthalpy correction       ...      0.00094421 Eh       0.59 kcal/mol
-----------------------------------------------------------------------
Total Enthalpy                    ...   -227.96943051 Eh

Vibrational entropy computed according to the QRRHO of S. Grimme
Chem.Eur.J. 2012 18 9955

-------
ENTROPY
-------

The entropy contributions are T*S = T*(S(el)+S(vib)+S(rot)+S(trans)
     S(el)   - electronic entropy
     S(vib)  - vibrational entropy
     S(rot)  - rotational entropy
     S(trans)- translational entropy
The entropies will be listed as mutliplied by the temperature to get
units of energy

Electronic entropy                ...      0.00000000 Eh      0.00 kcal/mol
Vibrational entropy               ...      0.00265786 Eh      1.67 kcal/mol
Rotational entropy                ...      0.01023620 Eh      6.42 kcal/mol
Translational entropy             ...      0.01812503 Eh     11.37 kcal/mol
-----------------------------------------------------------------------
Final entropy term                ...      0.03101909 Eh     19.46 kcal/mol

CAUTION: The rotational entropy is not quite correctly treated here
         because it includes a symmetry number that is not yet correctly
         implemented in ORCA!
For a nonlinear molecule the correct rotational entropy is:
    S(rot) = R*(ln(qrot/sn)+1.5)
    R    = 8.31441 J/mol/K = 1.987191683e-3 kcal/mol/K
    qrot = 34199.6295377
    sn is the rotational symmetry number. We have assumed 3 here
       if it is different for your molecule then you should correct
       the printed rotational entropy by manually evaluating the equation
       as given above

For convenience we print out the resulting values for sn=1 - 12:
 sn= 1  qrot/sn=   34199.6295 T*S(rot)=     7.07 kcal/mol T*S(tot)=    20.12 kcal/mol
 sn= 2  qrot/sn=   17099.8148 T*S(rot)=     6.66 kcal/mol T*S(tot)=    19.70 kcal/mol
 sn= 3  qrot/sn=   11399.8765 T*S(rot)=     6.42 kcal/mol T*S(tot)=    19.46 kcal/mol
 sn= 4  qrot/sn=    8549.9074 T*S(rot)=     6.25 kcal/mol T*S(tot)=    19.29 kcal/mol
 sn= 5  qrot/sn=    6839.9259 T*S(rot)=     6.12 kcal/mol T*S(tot)=    19.16 kcal/mol
 sn= 6  qrot/sn=    5699.9383 T*S(rot)=     6.01 kcal/mol T*S(tot)=    19.05 kcal/mol
 sn= 7  qrot/sn=    4885.6614 T*S(rot)=     5.92 kcal/mol T*S(tot)=    18.96 kcal/mol
 sn= 8  qrot/sn=    4274.9537 T*S(rot)=     5.84 kcal/mol T*S(tot)=    18.88 kcal/mol
 sn= 9  qrot/sn=    3799.9588 T*S(rot)=     5.77 kcal/mol T*S(tot)=    18.81 kcal/mol
 sn=10  qrot/sn=    3419.9630 T*S(rot)=     5.71 kcal/mol T*S(tot)=    18.75 kcal/mol
 sn=11  qrot/sn=    3109.0572 T*S(rot)=     5.65 kcal/mol T*S(tot)=    18.69 kcal/mol
 sn=12  qrot/sn=    2849.9691 T*S(rot)=     5.60 kcal/mol T*S(tot)=    18.64 kcal/mol

-------------------
GIBBS FREE ENTHALPY
-------------------

The Gibbs free enthalpy is G = H - T*S

Total enthalpy                    ...   -227.96943051 Eh
Total entropy correction          ...     -0.03101909 Eh    -19.46 kcal/mol
-----------------------------------------------------------------------
Final Gibbs free enthalpy         ...   -228.00044960 Eh

For completeness - the Gibbs free enthalpy minus the electronic energy
G-E(el)                           ...      0.02432260 Eh     15.26 kcal/mol

                             ****ORCA TERMINATED NORMALLY****
TOTAL RUN TIME: 0 days 0 hours 1 minutes 8 seconds 875 msec
