                         Program Version 4.0.1.2 - RELEASE -
|  1> # acetic_acid.xyz
|  2> ! PBEh3c Opt NumFreq CPCM
|  3> %cpcm
|  4>  smd true
|  5>  solvent "WATER"
|  6> end
|  7>
|  8> * xyz 0 1
|  9> C        0.642616225     -1.309359918      0.000000000
| 10> C       -0.095289514     -0.011649084      0.000000000
| 11> H        1.259628879     -1.384995806      0.896527394
| 12> H        1.259628879     -1.384995806     -0.896527394
| 13> H       -0.074021504     -2.132405951      0.000000000
| 14> O       -1.302821513      0.136185719      0.000000000
| 15> O        0.730106204      1.049006198      0.000000000
| 16> H        0.127243379      1.821574979      0.000000000
| 17> *
| 18> %pal
| 19>  nprocs 4
| 20> end
| 21>
| 22>                          ****END OF INPUT****
 Total Charge           Charge          ....    0
 Multiplicity           Mult            ....    1
 Number of Electrons    NEL             ....   32
Dispersion correction           -0.002313547
FINAL SINGLE POINT ENERGY      -228.611744835928
Dispersion correction            ... done
Dispersion correction           -0.002313464
FINAL SINGLE POINT ENERGY      -228.612803582998
Dispersion correction            ... done
Dispersion correction           -0.002312069
FINAL SINGLE POINT ENERGY      -228.613215481416
Dispersion correction            ... done
FINAL SINGLE POINT ENERGY      -228.613233077727
Dispersion correction            ... done
Dispersion correction           -0.002311590
FINAL SINGLE POINT ENERGY      -228.613239918942
Dispersion correction            ... done
Dispersion correction           -0.002311654
FINAL SINGLE POINT ENERGY      -228.613239417549
Dispersion correction            ... done
                    ***********************HURRAY********************

CARTESIAN COORDINATES (ANGSTROEM)
---------------------------------
  C      0.624431   -1.307671    0.000102
  C     -0.118861   -0.011616    0.001137
  H      1.266783   -1.376811    0.878704
  H      1.268943   -1.373567   -0.877147
  H     -0.065260   -2.146368   -0.002141
  O     -1.322488    0.102790    0.002401
  O      0.703543    1.037232   -0.000334
  H      0.190000    1.859373   -0.002722

 Multiplicity           Mult            ....    1
 Number of Electrons    NEL             ....   32
 Basis Dimension        Dim             ....   68

ORBITAL ENERGIES
----------------

  NO   OCC          E(Eh)            E(eV)
   0   2.0000     -19.540360      -531.7202
   1   2.0000     -19.489861      -530.3461
   2   2.0000     -10.589080      -288.1435
   3   2.0000     -10.435671      -283.9690
   4   2.0000      -1.225415       -33.3452
   5   2.0000      -1.129126       -30.7251
   6   2.0000      -0.841256       -22.8917
   7   2.0000      -0.687344       -18.7036
   8   2.0000      -0.568894       -15.4804
   9   2.0000      -0.549919       -14.9641
  10   2.0000      -0.533580       -14.5195
  11   2.0000      -0.460747       -12.5376
  12   2.0000      -0.453103       -12.3296
  13   2.0000      -0.442221       -12.0335
  14   2.0000      -0.383360       -10.4317
  15   2.0000      -0.344284        -9.3684
  16   0.0000       0.045831         1.2471
  17   0.0000       0.154368         4.2006
  18   0.0000       0.185804         5.0560
  19   0.0000       0.221269         6.0210
  20   0.0000       0.237339         6.4583

MULLIKEN ATOMIC CHARGES
-----------------------
   0 C :   -0.771488
   1 C :    0.533310
   2 H :    0.279766
   3 H :    0.279515
   4 H :    0.265324
   5 O :   -0.474958
   6 O :   -0.600860
   7 H :    0.489391
Sum of atomic charges:   -0.0000000

LOEWDIN ATOMIC CHARGES
----------------------
   0 C :   -0.399225
   1 C :    0.137881
   2 H :    0.170091
   3 H :    0.169941
   4 H :    0.156375
   5 O :   -0.298652
   6 O :   -0.298737
   7 H :    0.362325

  Mayer bond orders larger than 0.1
B(  0-C ,  1-C ) :   0.9482 B(  0-C ,  2-H ) :   0.8912 B(  0-C ,  3-H ) :   0.8914
B(  0-C ,  4-H ) :   0.9121 B(  1-C ,  5-O ) :   2.0044 B(  1-C ,  6-O ) :   1.1864
B(  6-O ,  7-H ) :   0.7205

Dispersion correction           -0.002311668
FINAL SINGLE POINT ENERGY      -228.613240464465

DIPOLE MOMENT
-------------
                                X             Y             Z
Electronic contribution:     -1.59907       2.88227       0.00291
Nuclear contribution   :      2.55916      -2.79063      -0.00588
                        -----------------------------------------
Total Dipole Moment    :      0.96009       0.09163      -0.00297
                        -----------------------------------------
Magnitude (a.u.)       :      0.96446
Magnitude (Debye)      :      2.45145

VIBRATIONAL FREQUENCIES
-----------------------

   0:         0.00 cm**-1
   1:         0.00 cm**-1
   2:         0.00 cm**-1
   3:         0.00 cm**-1
   4:         0.00 cm**-1
   5:         0.00 cm**-1
   6:       125.96 cm**-1
   7:       460.61 cm**-1
   8:       574.18 cm**-1
   9:       612.19 cm**-1
  10:       683.04 cm**-1
  11:       911.31 cm**-1
  12:      1047.16 cm**-1
  13:      1113.27 cm**-1
  14:      1239.40 cm**-1
  15:      1382.04 cm**-1
  16:      1471.94 cm**-1
  17:      1494.71 cm**-1
  18:      1513.36 cm**-1
  19:      1853.01 cm**-1
  20:      3137.03 cm**-1
  21:      3215.57 cm**-1
  22:      3258.50 cm**-1
  23:      3823.07 cm**-1

IR SPECTRUM
-----------

 Mode    freq (cm**-1)   T**2         TX         TY         TZ
-------------------------------------------------------------------
   6:       125.96    1.302416  (  0.027841  -0.023674   1.140649)
   7:       460.61    8.062029  (  2.561738   1.164172   0.379779)
   8:       574.18  102.414027  (  0.074158   0.363871  10.113166)
   9:       612.19   76.617515  ( -1.001084  -8.692486   0.236693)
  10:       683.04  129.556096  ( -0.098343  -0.069349  11.381635)
  11:       911.31    2.738097  ( -1.465122   0.764128  -0.087314)
  12:      1047.16   95.487265  (  5.230979   8.229354  -0.633930)
  13:      1113.27   26.881656  ( -0.673198  -1.133432  -5.014359)
  14:      1239.40  383.609575  ( 11.383135  15.938421  -0.023790)
  15:      1382.04   60.888071  ( -4.053031  -6.667869  -0.023142)
  16:      1471.94  138.257129  (  2.295606 -11.515777   0.611722)
  17:      1494.71   40.121108  ( -5.282038  -3.470728   0.418608)
  18:      1513.36   26.875600  ( -0.119765   1.979530   4.789856)
  19:      1853.01  666.352918  ( 25.813463  -0.128786  -0.038535)
  20:      3137.03    0.174358  (  0.167948  -0.326352   0.199112)
  21:      3215.57    0.301846  (  0.246125  -0.025465  -0.490530)
  22:      3258.50    3.253619  ( -0.983594  -1.503408   0.161020)
  23:      3823.07  201.719595  ( -4.034333  13.617688  -0.048166)

--------------------------
THERMOCHEMISTRY AT 298.15K
--------------------------

Temperature         ... 298.15 K
Pressure            ... 1.00 atm
Total Mass          ... 60.05 AMU

Throughout the following assumptions are being made:
  (1) The electronic state is orbitally nondegenerate
  (2) There are no thermally accessible electronically excited states
  (3) Hindered rotations indicated by low frequency modes are not
      treated as such but are treated as vibrations and this may
      cause some error
  (4) All equations used are the standard statistical mechanics
      equations for an ideal gas
  (5) All vibrations are strictly harmonic

freq.     125.96  E(vib)   ...       0.43
freq.     460.61  E(vib)   ...       0.16
freq.     574.18  E(vib)   ...       0.11
freq.     612.19  E(vib)   ...       0.10
freq.     683.04  E(vib)   ...       0.08
freq.     911.31  E(vib)   ...       0.03
freq.    1047.16  E(vib)   ...       0.02
freq.    1113.27  E(vib)   ...       0.01
freq.    1239.40  E(vib)   ...       0.01
freq.    1382.04  E(vib)   ...       0.01
freq.    1471.94  E(vib)   ...       0.00
freq.    1494.71  E(vib)   ...       0.00
freq.    1513.36  E(vib)   ...       0.00
freq.    1853.01  E(vib)   ...       0.00
freq.    3137.03  E(vib)   ...       0.00
freq.    3215.57  E(vib)   ...       0.00
freq.    3258.50  E(vib)   ...       0.00
freq.    3823.07  E(vib)   ...       0.00

------------
INNER ENERGY
------------

The inner energy is: U= E(el) + E(ZPE) + E(vib) + E(rot) + E(trans)
    E(el)   - is the total energy from the electronic structure calculation
              = E(kin-el) + E(nuc-el) + E(el-el) + E(nuc-nuc)
    E(ZPE)  - the the zero temperature vibrational energy from the frequency calculation
    E(vib)  - the the finite temperature correction to E(ZPE) due to population
              of excited vibrational states
    E(rot)  - is the rotational thermal energy
    E(trans)- is the translational thermal energy

Summary of contributions to the inner energy U:
Electronic energy                ...   -228.61324046 Eh
Zero point energy                ...      0.06359816 Eh      39.91 kcal/mol
Thermal vibrational correction   ...      0.00153359 Eh       0.96 kcal/mol
Thermal rotational correction    ...      0.00141627 Eh       0.89 kcal/mol
Thermal translational correction ...      0.00141627 Eh       0.89 kcal/mol
-----------------------------------------------------------------------
Total thermal energy                   -228.54527617 Eh

Summary of corrections to the electronic energy:
(perhaps to be used in another calculation)
Total thermal correction                  0.00436613 Eh       2.74 kcal/mol
Non-thermal (ZPE) correction              0.06359816 Eh      39.91 kcal/mol
-----------------------------------------------------------------------
Total correction                          0.06796430 Eh      42.65 kcal/mol

--------
ENTHALPY
--------

The enthalpy is H = U + kB*T
                kB is Boltzmann's constant
Total free energy                 ...   -228.54527617 Eh
Thermal Enthalpy correction       ...      0.00094421 Eh       0.59 kcal/mol
-----------------------------------------------------------------------
Total Enthalpy                    ...   -228.54433196 Eh

Vibrational entropy computed according to the QRRHO of S. Grimme
Chem.Eur.J. 2012 18 9955

-------
ENTROPY
-------

The entropy contributions are T*S = T*(S(el)+S(vib)+S(rot)+S(trans)
     S(el)   - electronic entropy
     S(vib)  - vibrational entropy
     S(rot)  - rotational entropy
     S(trans)- translational entropy
The entropies will be listed as mutliplied by the temperature to get
units of energy

Electronic entropy                ...      0.00000000 Eh      0.00 kcal/mol
Vibrational entropy               ...      0.00250934 Eh      1.57 kcal/mol
Rotational entropy                ...      0.01027775 Eh      6.45 kcal/mol
Translational entropy             ...      0.01814900 Eh     11.39 kcal/mol
-----------------------------------------------------------------------
Final entropy term                ...      0.03093609 Eh     19.41 kcal/mol

CAUTION: The rotational entropy is not quite correctly treated here
         because it includes a symmetry number that is not yet correctly
         implemented in ORCA!
For a nonlinear molecule the correct rotational entropy is:
    S(rot) = R*(ln(qrot/sn)+1.5)
    R    = 8.31441 J/mol/K = 1.987191683e-3 kcal/mol/K
    qrot = 35738.0796556
    sn is the rotational symmetry number. We have assumed 3 here
       if it is different for your molecule then you should correct
       the printed rotational entropy by manually evaluating the equation
       as given above

For convenience we print out the resulting values for sn=1 - 12:
 sn= 1  qrot/sn=   35738.0797 T*S(rot)=     7.10 kcal/mol T*S(tot)=    20.06 kcal/mol
 sn= 2  qrot/sn=   17869.0398 T*S(rot)=     6.69 kcal/mol T*S(tot)=    19.65 kcal/mol
 sn= 3  qrot/sn=   11912.6932 T*S(rot)=     6.45 kcal/mol T*S(tot)=    19.41 kcal/mol
 sn= 4  qrot/sn=    8934.5199 T*S(rot)=     6.28 kcal/mol T*S(tot)=    19.24 kcal/mol
 sn= 5  qrot/sn=    7147.6159 T*S(rot)=     6.15 kcal/mol T*S(tot)=    19.11 kcal/mol
 sn= 6  qrot/sn=    5956.3466 T*S(rot)=     6.04 kcal/mol T*S(tot)=    19.00 kcal/mol
 sn= 7  qrot/sn=    5105.4400 T*S(rot)=     5.95 kcal/mol T*S(tot)=    18.91 kcal/mol
 sn= 8  qrot/sn=    4467.2600 T*S(rot)=     5.87 kcal/mol T*S(tot)=    18.83 kcal/mol
 sn= 9  qrot/sn=    3970.8977 T*S(rot)=     5.80 kcal/mol T*S(tot)=    18.76 kcal/mol
 sn=10  qrot/sn=    3573.8080 T*S(rot)=     5.74 kcal/mol T*S(tot)=    18.70 kcal/mol
 sn=11  qrot/sn=    3248.9163 T*S(rot)=     5.68 kcal/mol T*S(tot)=    18.64 kcal/mol
 sn=12  qrot/sn=    2978.1733 T*S(rot)=     5.63 kcal/mol T*S(tot)=    18.59 kcal/mol

-------------------
GIBBS FREE ENTHALPY
-------------------

The Gibbs free enthalpy is G = H - T*S

Total enthalpy                    ...   -228.54433196 Eh
Total entropy correction          ...     -0.03093609 Eh    -19.41 kcal/mol
-----------------------------------------------------------------------
Final Gibbs free enthalpy         ...   -228.57526805 Eh

For completeness - the Gibbs free enthalpy minus the electronic energy
G-E(el)                           ...      0.03797241 Eh     23.83 kcal/mol

                             ****ORCA TERMINATED NORMALLY****
TOTAL RUN TIME: 0 days 0 hours 3 minutes 2 seconds 727 msec
