                         Program Version 4.0.1.2 - RELEASE -
|  1> # acetic_acid.xyz
|  2> ! PBEh3c Opt Freq
|  3>
|  4> * xyz 0 1
|  5> C        0.642616225     -1.309359918      0.000000000
|  6> C       -0.095289514     -0.011649084      0.000000000
|  7> H        1.259628879     -1.384995806      0.896527394
|  8> H        1.259628879     -1.384995806     -0.896527394
|  9> H       -0.074021504     -2.132405951      0.000000000
| 10> O       -1.302821513      0.136185719      0.000000000
| 11> O        0.730106204      1.049006198      0.000000000
| 12> H        0.127243379      1.821574979      0.000000000
| 13> *
| 14> %pal
| 15>  nprocs 4
| 16> end
| 17>
| 18>                          ****END OF INPUT****
 Total Charge           Charge          ....    0
 Multiplicity           Mult            ....    1
 Number of Electrons    NEL             ....   32
Dispersion correction           -0.002313547
FINAL SINGLE POINT ENERGY      -228.601253606620
Dispersion correction            ... done
Dispersion correction           -0.002314661
FINAL SINGLE POINT ENERGY      -228.602465660364
Dispersion correction            ... done
Dispersion correction           -0.002313259
FINAL SINGLE POINT ENERGY      -228.602769274951
Dispersion correction            ... done
Dispersion correction           -0.002312617
FINAL SINGLE POINT ENERGY      -228.602797663693
Dispersion correction            ... done
Dispersion correction           -0.002312541
FINAL SINGLE POINT ENERGY      -228.602800107411
Dispersion correction            ... done
                    ***********************HURRAY********************

CARTESIAN COORDINATES (ANGSTROEM)
---------------------------------
  C      0.626425   -1.307882    0.000000
  C     -0.125726   -0.008626    0.000000
  H      1.270967   -1.376605    0.876774
  H      1.270967   -1.376604   -0.876774
  H     -0.068190   -2.142124   -0.000000
  O     -1.318295    0.110092   -0.000000
  O      0.710233    1.038509   -0.000000
  H      0.180710    1.846600   -0.000000

 Multiplicity           Mult            ....    1
 Number of Electrons    NEL             ....   32
 Basis Dimension        Dim             ....   68

ORBITAL ENERGIES
----------------

  NO   OCC          E(Eh)            E(eV)
   0   2.0000     -19.542324      -531.7737
   1   2.0000     -19.483629      -530.1765
   2   2.0000     -10.583444      -287.9901
   3   2.0000     -10.448664      -284.3226
   4   2.0000      -1.226340       -33.3704
   5   2.0000      -1.128394       -30.7052
   6   2.0000      -0.848164       -23.0797
   7   2.0000      -0.691593       -18.8192
   8   2.0000      -0.560351       -15.2479
   9   2.0000      -0.551035       -14.9944
  10   2.0000      -0.535822       -14.5805
  11   2.0000      -0.468675       -12.7533
  12   2.0000      -0.456213       -12.4142
  13   2.0000      -0.452029       -12.3003
  14   2.0000      -0.378365       -10.2958
  15   2.0000      -0.336241        -9.1496
  16   0.0000       0.049207         1.3390
  17   0.0000       0.128297         3.4912
  18   0.0000       0.167412         4.5555
  19   0.0000       0.206775         5.6266
  20   0.0000       0.222020         6.0415

MULLIKEN ATOMIC CHARGES
-----------------------
   0 C :   -0.745479
   1 C :    0.502830
   2 H :    0.253193
   3 H :    0.253193
   4 H :    0.257725
   5 O :   -0.383553
   6 O :   -0.580551
   7 H :    0.442642
Sum of atomic charges:   -0.0000000

LOEWDIN ATOMIC CHARGES
----------------------
   0 C :   -0.392861
   1 C :    0.118797
   2 H :    0.155840
   3 H :    0.155840
   4 H :    0.151762
   5 O :   -0.223201
   6 O :   -0.298442
   7 H :    0.332266

  Mayer bond orders larger than 0.1
B(  0-C ,  1-C ) :   0.9342 B(  0-C ,  2-H ) :   0.9057 B(  0-C ,  3-H ) :   0.9057
B(  0-C ,  4-H ) :   0.9178 B(  1-C ,  5-O ) :   2.0821 B(  1-C ,  6-O ) :   1.1464
B(  6-O ,  7-H ) :   0.7595

Dispersion correction           -0.002312568
FINAL SINGLE POINT ENERGY      -228.602800242596

DIPOLE MOMENT
-------------
                                X             Y             Z
Electronic contribution:     -1.87961       2.85729       0.00000
Nuclear contribution   :      2.54678      -2.81119      -0.00000
                        -----------------------------------------
Total Dipole Moment    :      0.66717       0.04610       0.00000
                        -----------------------------------------
Magnitude (a.u.)       :      0.66877
Magnitude (Debye)      :      1.69987

Dispersion correction in the Hessian             ... done   (      2.0 sec)

VIBRATIONAL FREQUENCIES
-----------------------

   0:         0.00 cm**-1
   1:         0.00 cm**-1
   2:         0.00 cm**-1
   3:         0.00 cm**-1
   4:         0.00 cm**-1
   5:         0.00 cm**-1
   6:        81.44 cm**-1
   7:       448.30 cm**-1
   8:       573.57 cm**-1
   9:       610.86 cm**-1
  10:       700.53 cm**-1
  11:       905.17 cm**-1
  12:      1048.41 cm**-1
  13:      1114.78 cm**-1
  14:      1266.59 cm**-1
  15:      1400.68 cm**-1
  16:      1483.76 cm**-1
  17:      1523.79 cm**-1
  18:      1532.97 cm**-1
  19:      1947.39 cm**-1
  20:      3135.34 cm**-1
  21:      3209.80 cm**-1
  22:      3259.29 cm**-1
  23:      3863.13 cm**-1

IR SPECTRUM
-----------

 Mode    freq (cm**-1)   T**2         TX         TY         TZ
-------------------------------------------------------------------
   6:        81.44    0.636676  ( -0.000004   0.000000  -0.797920)
   7:       448.30    5.216484  (  2.000166   1.102643   0.000001)
   8:       573.57   43.002425  ( -0.000015   0.000005   6.557623)
   9:       610.86   45.491292  (  0.434010   6.730745  -0.000000)
  10:       700.53  107.517500  ( -0.000004   0.000001  10.369065)
  11:       905.17    3.292874  (  0.814025  -1.621801  -0.000000)
  12:      1048.41   41.673025  (  3.143071   5.638628   0.000000)
  13:      1114.78   13.081044  (  0.000005   0.000000   3.616773)
  14:      1266.59  213.366210  (  7.709712  12.406714  -0.000006)
  15:      1400.68   41.210458  ( -2.903208  -5.725543  -0.000000)
  16:      1483.76  107.200119  (  0.344532 -10.348015  -0.000001)
  17:      1523.79   14.974489  ( -3.821827   0.606736  -0.000004)
  18:      1532.97   11.980532  ( -0.000003   0.000000   3.461290)
  19:      1947.39  342.170308  ( 18.475120   0.916657  -0.000002)
  20:      3135.34    0.532659  ( -0.682345   0.258969  -0.000002)
  21:      3209.80    1.875945  ( -0.000002   0.000002  -1.369652)
  22:      3259.29    2.625792  (  1.049189   1.234907   0.000001)
  23:      3863.13   79.794631  ( -2.502956   8.574954  -0.000003)

--------------------------
THERMOCHEMISTRY AT 298.15K
--------------------------

Temperature         ... 298.15 K
Pressure            ... 1.00 atm
Total Mass          ... 60.05 AMU

Throughout the following assumptions are being made:
  (1) The electronic state is orbitally nondegenerate
  (2) There are no thermally accessible electronically excited states
  (3) Hindered rotations indicated by low frequency modes are not
      treated as such but are treated as vibrations and this may
      cause some error
  (4) All equations used are the standard statistical mechanics
      equations for an ideal gas
  (5) All vibrations are strictly harmonic

freq.      81.44  E(vib)   ...       0.48
freq.     448.30  E(vib)   ...       0.17
freq.     573.57  E(vib)   ...       0.11
freq.     610.86  E(vib)   ...       0.10
freq.     700.53  E(vib)   ...       0.07
freq.     905.17  E(vib)   ...       0.03
freq.    1048.41  E(vib)   ...       0.02
freq.    1114.78  E(vib)   ...       0.01
freq.    1266.59  E(vib)   ...       0.01
freq.    1400.68  E(vib)   ...       0.00
freq.    1483.76  E(vib)   ...       0.00
freq.    1523.79  E(vib)   ...       0.00
freq.    1532.97  E(vib)   ...       0.00
freq.    1947.39  E(vib)   ...       0.00
freq.    3135.34  E(vib)   ...       0.00
freq.    3209.80  E(vib)   ...       0.00
freq.    3259.29  E(vib)   ...       0.00
freq.    3863.13  E(vib)   ...       0.00

------------
INNER ENERGY
------------

The inner energy is: U= E(el) + E(ZPE) + E(vib) + E(rot) + E(trans)
    E(el)   - is the total energy from the electronic structure calculation
              = E(kin-el) + E(nuc-el) + E(el-el) + E(nuc-nuc)
    E(ZPE)  - the the zero temperature vibrational energy from the frequency calculation
    E(vib)  - the the finite temperature correction to E(ZPE) due to population
              of excited vibrational states
    E(rot)  - is the rotational thermal energy
    E(trans)- is the translational thermal energy

Summary of contributions to the inner energy U:
Electronic energy                ...   -228.60280024 Eh
Zero point energy                ...      0.06402969 Eh      40.18 kcal/mol
Thermal vibrational correction   ...      0.00161972 Eh       1.02 kcal/mol
Thermal rotational correction    ...      0.00141627 Eh       0.89 kcal/mol
Thermal translational correction ...      0.00141627 Eh       0.89 kcal/mol
-----------------------------------------------------------------------
Total thermal energy                   -228.53431829 Eh

Summary of corrections to the electronic energy:
(perhaps to be used in another calculation)
Total thermal correction                  0.00445226 Eh       2.79 kcal/mol
Non-thermal (ZPE) correction              0.06402969 Eh      40.18 kcal/mol
-----------------------------------------------------------------------
Total correction                          0.06848195 Eh      42.97 kcal/mol

--------
ENTHALPY
--------

The enthalpy is H = U + kB*T
                kB is Boltzmann's constant
Total free energy                 ...   -228.53431829 Eh
Thermal Enthalpy correction       ...      0.00094421 Eh       0.59 kcal/mol
-----------------------------------------------------------------------
Total Enthalpy                    ...   -228.53337408 Eh

Vibrational entropy computed according to the QRRHO of S. Grimme
Chem.Eur.J. 2012 18 9955

-------
ENTROPY
-------

The entropy contributions are T*S = T*(S(el)+S(vib)+S(rot)+S(trans)
     S(el)   - electronic entropy
     S(vib)  - vibrational entropy
     S(rot)  - rotational entropy
     S(trans)- translational entropy
The entropies will be listed as mutliplied by the temperature to get
units of energy

Electronic entropy                ...      0.00000000 Eh      0.00 kcal/mol
Vibrational entropy               ...      0.00270712 Eh      1.70 kcal/mol
Rotational entropy                ...      0.01027845 Eh      6.45 kcal/mol
Translational entropy             ...      0.01814900 Eh     11.39 kcal/mol
-----------------------------------------------------------------------
Final entropy term                ...      0.03113457 Eh     19.54 kcal/mol

CAUTION: The rotational entropy is not quite correctly treated here
         because it includes a symmetry number that is not yet correctly
         implemented in ORCA!
For a nonlinear molecule the correct rotational entropy is:
    S(rot) = R*(ln(qrot/sn)+1.5)
    R    = 8.31441 J/mol/K = 1.987191683e-3 kcal/mol/K
    qrot = 35764.6615903
    sn is the rotational symmetry number. We have assumed 3 here
       if it is different for your molecule then you should correct
       the printed rotational entropy by manually evaluating the equation
       as given above

For convenience we print out the resulting values for sn=1 - 12:
 sn= 1  qrot/sn=   35764.6616 T*S(rot)=     7.10 kcal/mol T*S(tot)=    20.19 kcal/mol
 sn= 2  qrot/sn=   17882.3308 T*S(rot)=     6.69 kcal/mol T*S(tot)=    19.78 kcal/mol
 sn= 3  qrot/sn=   11921.5539 T*S(rot)=     6.45 kcal/mol T*S(tot)=    19.54 kcal/mol
 sn= 4  qrot/sn=    8941.1654 T*S(rot)=     6.28 kcal/mol T*S(tot)=    19.37 kcal/mol
 sn= 5  qrot/sn=    7152.9323 T*S(rot)=     6.15 kcal/mol T*S(tot)=    19.23 kcal/mol
 sn= 6  qrot/sn=    5960.7769 T*S(rot)=     6.04 kcal/mol T*S(tot)=    19.13 kcal/mol
 sn= 7  qrot/sn=    5109.2374 T*S(rot)=     5.95 kcal/mol T*S(tot)=    19.04 kcal/mol
 sn= 8  qrot/sn=    4470.5827 T*S(rot)=     5.87 kcal/mol T*S(tot)=    18.96 kcal/mol
 sn= 9  qrot/sn=    3973.8513 T*S(rot)=     5.80 kcal/mol T*S(tot)=    18.89 kcal/mol
 sn=10  qrot/sn=    3576.4662 T*S(rot)=     5.74 kcal/mol T*S(tot)=    18.82 kcal/mol
 sn=11  qrot/sn=    3251.3329 T*S(rot)=     5.68 kcal/mol T*S(tot)=    18.77 kcal/mol
 sn=12  qrot/sn=    2980.3885 T*S(rot)=     5.63 kcal/mol T*S(tot)=    18.72 kcal/mol

-------------------
GIBBS FREE ENTHALPY
-------------------

The Gibbs free enthalpy is G = H - T*S

Total enthalpy                    ...   -228.53337408 Eh
Total entropy correction          ...     -0.03113457 Eh    -19.54 kcal/mol
-----------------------------------------------------------------------
Final Gibbs free enthalpy         ...   -228.56450866 Eh

For completeness - the Gibbs free enthalpy minus the electronic energy
G-E(el)                           ...      0.03829159 Eh     24.03 kcal/mol

                             ****ORCA TERMINATED NORMALLY****
TOTAL RUN TIME: 0 days 0 hours 1 minutes 7 seconds 794 msec
