                         Program Version 4.0.1.2 - RELEASE -
|  1> # acetate.xyz
|  2> ! PBEh3c Opt NumFreq CPCM
|  3> %cpcm
|  4>  smd true
|  5>  solvent "WATER"
|  6> end
|  7>
|  8> * xyz -1 1
|  9> C        0.626425000     -1.307882000      0.000000000
| 10> C       -0.125726000     -0.008626000      0.000000000
| 11> H        1.270967000     -1.376605000      0.876774000
| 12> H        1.270967000     -1.376604000     -0.876774000
| 13> H       -0.068190000     -2.142124000      0.000000000
| 14> O       -1.318295000      0.110092000      0.000000000
| 15> O        0.710233000      1.038509000      0.000000000
| 16> *
| 17> %pal
| 18>  nprocs 4
| 19> end
| 20>
| 21>                          ****END OF INPUT****
 Total Charge           Charge          ....   -1
 Multiplicity           Mult            ....    1
 Number of Electrons    NEL             ....   32
Dispersion correction           -0.002005545
FINAL SINGLE POINT ENERGY      -228.133813863513
Dispersion correction            ... done
Dispersion correction           -0.002003039
FINAL SINGLE POINT ENERGY      -228.142137866065
Dispersion correction            ... done
Dispersion correction           -0.002003509
FINAL SINGLE POINT ENERGY      -228.144759967285
Dispersion correction            ... done
FINAL SINGLE POINT ENERGY      -228.144924730077
FINAL SINGLE POINT ENERGY      -228.144247322869
Dispersion correction            ... done
Dispersion correction           -0.002001763
FINAL SINGLE POINT ENERGY      -228.145061096800
Dispersion correction            ... done
Dispersion correction           -0.002001802
FINAL SINGLE POINT ENERGY      -228.145059620593
Dispersion correction            ... done
                    ***********************HURRAY********************

CARTESIAN COORDINATES (ANGSTROEM)
---------------------------------
  C      0.622676   -1.306929    0.000342
  C     -0.071824    0.052875    0.000506
  H      1.272518   -1.401332    0.873196
  H      1.266940   -1.402880   -0.876552
  H     -0.075935   -2.142259    0.003195
  O     -1.321899    0.077209   -0.004686
  O      0.673906    1.060076    0.003998

 Multiplicity           Mult            ....    1
 Number of Electrons    NEL             ....   32
 Basis Dimension        Dim             ....   66

ORBITAL ENERGIES
----------------

  NO   OCC          E(Eh)            E(eV)
   0   2.0000     -19.417766      -528.3843
   1   2.0000     -19.415667      -528.3272
   2   2.0000     -10.519372      -286.2467
   3   2.0000     -10.407584      -283.2047
   4   2.0000      -1.123397       -30.5692
   5   2.0000      -1.025573       -27.9073
   6   2.0000      -0.785813       -21.3831
   7   2.0000      -0.557417       -15.1681
   8   2.0000      -0.482594       -13.1321
   9   2.0000      -0.479228       -13.0404
  10   2.0000      -0.478235       -13.0134
  11   2.0000      -0.422735       -11.5032
  12   2.0000      -0.398557       -10.8453
  13   2.0000      -0.293628        -7.9900
  14   2.0000      -0.286064        -7.7842
  15   2.0000      -0.279210        -7.5977
  16   0.0000       0.108630         2.9560
  17   0.0000       0.192091         5.2271
  18   0.0000       0.231866         6.3094
  19   0.0000       0.254933         6.9371
  20   0.0000       0.277944         7.5632

MULLIKEN ATOMIC CHARGES
-----------------------
   0 C :   -0.792939
   1 C :    0.401898
   2 H :    0.236730
   3 H :    0.237067
   4 H :    0.218001
   5 O :   -0.645871
   6 O :   -0.654888
Sum of atomic charges:   -1.0000000

LOEWDIN ATOMIC CHARGES
----------------------
   0 C :   -0.442549
   1 C :    0.005254
   2 H :    0.142489
   3 H :    0.142771
   4 H :    0.127021
   5 O :   -0.481637
   6 O :   -0.493348

  Mayer bond orders larger than 0.1
B(  0-C ,  1-C ) :   0.9112 B(  0-C ,  2-H ) :   0.9171 B(  0-C ,  3-H ) :   0.9170
B(  0-C ,  4-H ) :   0.9210 B(  1-C ,  5-O ) :   1.7896 B(  1-C ,  6-O ) :   1.7648
B(  5-O ,  6-O ) :   0.1145

Dispersion correction           -0.002001817
FINAL SINGLE POINT ENERGY      -228.145057950479

DIPOLE MOMENT
-------------
                                X             Y             Z
Electronic contribution:     -1.49259       2.85382       0.00047
Nuclear contribution   :      2.36270      -4.53458      -0.00011
                        -----------------------------------------
Total Dipole Moment    :      0.87011      -1.68076       0.00036
                        -----------------------------------------
Magnitude (a.u.)       :      1.89263
Magnitude (Debye)      :      4.81067

VIBRATIONAL FREQUENCIES
-----------------------

   0:         0.00 cm**-1
   1:         0.00 cm**-1
   2:         0.00 cm**-1
   3:         0.00 cm**-1
   4:         0.00 cm**-1
   5:         0.00 cm**-1
   6:       108.04 cm**-1
   7:       469.82 cm**-1
   8:       660.52 cm**-1
   9:       666.73 cm**-1
  10:       942.96 cm**-1
  11:      1062.00 cm**-1
  12:      1092.49 cm**-1
  13:      1406.78 cm**-1
  14:      1478.37 cm**-1
  15:      1512.90 cm**-1
  16:      1525.30 cm**-1
  17:      1717.22 cm**-1
  18:      3111.99 cm**-1
  19:      3184.69 cm**-1
  20:      3213.69 cm**-1

IR SPECTRUM
-----------

 Mode    freq (cm**-1)   T**2         TX         TY         TZ
-------------------------------------------------------------------
   6:       108.04    0.730697  ( -0.009178  -0.001969   0.854757)
   7:       469.82    1.913345  ( -0.793543  -1.132967  -0.004544)
   8:       660.52   13.007556  ( -0.501252   1.140508   3.384604)
   9:       666.73   46.035487  (  3.075041  -6.025370   0.523951)
  10:       942.96   40.974902  (  2.812064  -5.750291  -0.036666)
  11:      1062.00    8.324433  (  2.698983   1.019361   0.028759)
  12:      1092.49   24.615389  ( -0.001744   0.094438   4.960491)
  13:      1406.78   10.847560  (  1.364078   2.997740   0.020143)
  14:      1478.37  332.928663  ( 11.552543 -14.123289  -0.010799)
  15:      1512.90  195.488877  (  0.230587 -13.979829  -0.009787)
  16:      1525.30   13.550343  ( -0.084921  -0.170479  -3.676149)
  17:      1717.22  970.765243  (-28.327203 -12.972997  -0.190252)
  18:      3111.99    6.114386  ( -1.468518   1.989181  -0.031630)
  19:      3184.69   17.668601  ( -0.032425   0.034788  -4.203134)
  20:      3213.69   34.871817  (  4.479726   3.847304   0.046135)

--------------------------
THERMOCHEMISTRY AT 298.15K
--------------------------

Temperature         ... 298.15 K
Pressure            ... 1.00 atm
Total Mass          ... 59.04 AMU

Throughout the following assumptions are being made:
  (1) The electronic state is orbitally nondegenerate
  (2) There are no thermally accessible electronically excited states
  (3) Hindered rotations indicated by low frequency modes are not
      treated as such but are treated as vibrations and this may
      cause some error
  (4) All equations used are the standard statistical mechanics
      equations for an ideal gas
  (5) All vibrations are strictly harmonic

freq.     108.04  E(vib)   ...       0.45
freq.     469.82  E(vib)   ...       0.16
freq.     660.52  E(vib)   ...       0.08
freq.     666.73  E(vib)   ...       0.08
freq.     942.96  E(vib)   ...       0.03
freq.    1062.00  E(vib)   ...       0.02
freq.    1092.49  E(vib)   ...       0.02
freq.    1406.78  E(vib)   ...       0.00
freq.    1478.37  E(vib)   ...       0.00
freq.    1512.90  E(vib)   ...       0.00
freq.    1525.30  E(vib)   ...       0.00
freq.    1717.22  E(vib)   ...       0.00
freq.    3111.99  E(vib)   ...       0.00
freq.    3184.69  E(vib)   ...       0.00
freq.    3213.69  E(vib)   ...       0.00

------------
INNER ENERGY
------------

The inner energy is: U= E(el) + E(ZPE) + E(vib) + E(rot) + E(trans)
    E(el)   - is the total energy from the electronic structure calculation
              = E(kin-el) + E(nuc-el) + E(el-el) + E(nuc-nuc)
    E(ZPE)  - the the zero temperature vibrational energy from the frequency calculation
    E(vib)  - the the finite temperature correction to E(ZPE) due to population
              of excited vibrational states
    E(rot)  - is the rotational thermal energy
    E(trans)- is the translational thermal energy

Summary of contributions to the inner energy U:
Electronic energy                ...   -228.14505795 Eh
Zero point energy                ...      0.05046934 Eh      31.67 kcal/mol
Thermal vibrational correction   ...      0.00134733 Eh       0.85 kcal/mol
Thermal rotational correction    ...      0.00141627 Eh       0.89 kcal/mol
Thermal translational correction ...      0.00141627 Eh       0.89 kcal/mol
-----------------------------------------------------------------------
Total thermal energy                   -228.09040873 Eh

Summary of corrections to the electronic energy:
(perhaps to be used in another calculation)
Total thermal correction                  0.00417988 Eh       2.62 kcal/mol
Non-thermal (ZPE) correction              0.05046934 Eh      31.67 kcal/mol
-----------------------------------------------------------------------
Total correction                          0.05464922 Eh      34.29 kcal/mol

--------
ENTHALPY
--------

The enthalpy is H = U + kB*T
                kB is Boltzmann's constant
Total free energy                 ...   -228.09040873 Eh
Thermal Enthalpy correction       ...      0.00094421 Eh       0.59 kcal/mol
-----------------------------------------------------------------------
Total Enthalpy                    ...   -228.08946452 Eh

Vibrational entropy computed according to the QRRHO of S. Grimme
Chem.Eur.J. 2012 18 9955

-------
ENTROPY
-------

The entropy contributions are T*S = T*(S(el)+S(vib)+S(rot)+S(trans)
     S(el)   - electronic entropy
     S(vib)  - vibrational entropy
     S(rot)  - rotational entropy
     S(trans)- translational entropy
The entropies will be listed as mutliplied by the temperature to get
units of energy

Electronic entropy                ...      0.00000000 Eh      0.00 kcal/mol
Vibrational entropy               ...      0.00229847 Eh      1.44 kcal/mol
Rotational entropy                ...      0.01022466 Eh      6.42 kcal/mol
Translational entropy             ...      0.01812503 Eh     11.37 kcal/mol
-----------------------------------------------------------------------
Final entropy term                ...      0.03064816 Eh     19.23 kcal/mol

CAUTION: The rotational entropy is not quite correctly treated here
         because it includes a symmetry number that is not yet correctly
         implemented in ORCA!
For a nonlinear molecule the correct rotational entropy is:
    S(rot) = R*(ln(qrot/sn)+1.5)
    R    = 8.31441 J/mol/K = 1.987191683e-3 kcal/mol/K
    qrot = 33784.1457515
    sn is the rotational symmetry number. We have assumed 3 here
       if it is different for your molecule then you should correct
       the printed rotational entropy by manually evaluating the equation
       as given above

For convenience we print out the resulting values for sn=1 - 12:
 sn= 1  qrot/sn=   33784.1458 T*S(rot)=     7.07 kcal/mol T*S(tot)=    19.88 kcal/mol
 sn= 2  qrot/sn=   16892.0729 T*S(rot)=     6.66 kcal/mol T*S(tot)=    19.47 kcal/mol
 sn= 3  qrot/sn=   11261.3819 T*S(rot)=     6.42 kcal/mol T*S(tot)=    19.23 kcal/mol
 sn= 4  qrot/sn=    8446.0364 T*S(rot)=     6.25 kcal/mol T*S(tot)=    19.06 kcal/mol
 sn= 5  qrot/sn=    6756.8292 T*S(rot)=     6.11 kcal/mol T*S(tot)=    18.93 kcal/mol
 sn= 6  qrot/sn=    5630.6910 T*S(rot)=     6.01 kcal/mol T*S(tot)=    18.82 kcal/mol
 sn= 7  qrot/sn=    4826.3065 T*S(rot)=     5.91 kcal/mol T*S(tot)=    18.73 kcal/mol
 sn= 8  qrot/sn=    4223.0182 T*S(rot)=     5.83 kcal/mol T*S(tot)=    18.65 kcal/mol
 sn= 9  qrot/sn=    3753.7940 T*S(rot)=     5.77 kcal/mol T*S(tot)=    18.58 kcal/mol
 sn=10  qrot/sn=    3378.4146 T*S(rot)=     5.70 kcal/mol T*S(tot)=    18.52 kcal/mol
 sn=11  qrot/sn=    3071.2860 T*S(rot)=     5.65 kcal/mol T*S(tot)=    18.46 kcal/mol
 sn=12  qrot/sn=    2815.3455 T*S(rot)=     5.59 kcal/mol T*S(tot)=    18.41 kcal/mol

-------------------
GIBBS FREE ENTHALPY
-------------------

The Gibbs free enthalpy is G = H - T*S

Total enthalpy                    ...   -228.08946452 Eh
Total entropy correction          ...     -0.03064816 Eh    -19.23 kcal/mol
-----------------------------------------------------------------------
Final Gibbs free enthalpy         ...   -228.12011268 Eh

For completeness - the Gibbs free enthalpy minus the electronic energy
G-E(el)                           ...      0.02494527 Eh     15.65 kcal/mol

                             ****ORCA TERMINATED NORMALLY****
TOTAL RUN TIME: 0 days 0 hours 3 minutes 10 seconds 312 msec
