                         Program Version 4.2.1 -  RELEASE  -
|  1> ! DLPNO-CCSD(T) cc-pVTZ RIJCOSX AutoAux TightSCF Grid4 FinalGrid5 PrintBasis PrintMOs
|  2> %maxcore 1150
|  3>
|  4> * xyzfile 0 1 init.xyz
|  5>
|  6>                          ****END OF INPUT****

CARTESIAN COORDINATES (ANGSTROEM)
---------------------------------
  He     0.000000    0.000000    0.000000

 Total Charge           Charge          ....    0
 Multiplicity           Mult            ....    1
 Number of Electrons    NEL             ....    2
 Basis Dimension        Dim             ....   14

ORBITAL ENERGIES
----------------

  NO   OCC          E(Eh)            E(eV)
   0   2.0000      -0.917627       -24.9699
   1   0.0000       0.636643        17.3239
   2   0.0000       1.629670        44.3456
   3   0.0000       1.629670        44.3456
   4   0.0000       1.629670        44.3456
   5   0.0000       4.608564       125.4054

------------------
MOLECULAR ORBITALS
------------------
                      0         1         2         3         4         5
                  -0.91763   0.63664   1.62967   1.62967   1.62967   4.60856
                   2.00000   0.00000   0.00000   0.00000   0.00000   0.00000
                  --------  --------  --------  --------  --------  --------
  0He  1s         0.354799  0.160510 -0.000000 -0.000000  0.000000 -1.491563
  0He  2s         0.478065  1.156150  0.000000 -0.000000  0.000000  1.953205
  0He  3s         0.307737 -1.532241 -0.000000 -0.000000  0.000000 -0.849474
  0He  1pz        0.000000 -0.000000  0.022998  0.060726 -0.045829  0.000000
  0He  1px       -0.000000  0.000000  0.001336 -0.048192 -0.063187  0.000000
  0He  1py        0.000000 -0.000000  0.076067 -0.017514  0.014965 -0.000000
  0He  2pz       -0.000000  0.000000 -0.301867 -0.797088  0.601544 -0.000000
  0He  2px        0.000000 -0.000000 -0.017534  0.632562  0.829389 -0.000000
  0He  2py       -0.000000  0.000000 -0.998447  0.229880 -0.196434  0.000000
  0He  1dz2       0.000000  0.000000  0.000000  0.000000 -0.000000 -0.000000
  0He  1dxz      -0.000000 -0.000000 -0.000000  0.000000 -0.000000  0.000000
  0He  1dyz       0.000000 -0.000000  0.000000 -0.000000 -0.000000  0.000000
  0He  1dx2y2    -0.000000 -0.000000 -0.000000  0.000000 -0.000000 -0.000000
  0He  1dxy      -0.000000 -0.000000 -0.000000 -0.000000 -0.000000  0.000000
                      6         7         8         9        10        11
                   6.43740   6.43740   6.43740   6.43740   6.43740   8.00368
                   0.00000   0.00000   0.00000   0.00000   0.00000   0.00000
                  --------  --------  --------  --------  --------  --------
  0He  1s         0.000000 -0.000000 -0.000000 -0.000000  0.000000  0.000000
  0He  2s        -0.000000  0.000000  0.000000 -0.000000 -0.000000 -0.000000
  0He  3s         0.000000 -0.000000  0.000000  0.000000  0.000000  0.000000
  0He  1pz        0.000000  0.000000  0.000000 -0.000000  0.000000  0.512376
  0He  1px        0.000000 -0.000000 -0.000000  0.000000 -0.000000 -0.069599
  0He  1py       -0.000000 -0.000000 -0.000000 -0.000000  0.000000 -1.099737
  0He  2pz       -0.000000 -0.000000 -0.000000  0.000000 -0.000000 -0.264916
  0He  2px       -0.000000  0.000000  0.000000  0.000000  0.000000  0.035985
  0He  2py        0.000000  0.000000  0.000000  0.000000 -0.000000  0.568602
  0He  1dz2      -0.253216 -0.546320  0.385832  0.382615 -0.584941  0.000000
  0He  1dxz      -0.199029 -0.772831 -0.268065 -0.196386  0.502686  0.000000
  0He  1dyz       0.051693  0.076886  0.325027  0.728046  0.596425 -0.000000
  0He  1dx2y2    -0.677631  0.234966 -0.592786  0.356627 -0.083844  0.000000
  0He  1dxy       0.659101 -0.207717 -0.567660  0.397246 -0.205907  0.000000
                     12        13
                   8.00368   8.00368
                   0.00000   0.00000
                  --------  --------
  0He  1s         0.000000  0.000000
  0He  2s        -0.000000 -0.000000
  0He  3s         0.000000  0.000000
  0He  1pz       -1.003453  0.455356
  0He  1px        0.471702  1.117788
  0He  1py       -0.497369  0.141413
  0He  2pz        0.518820 -0.235435
  0He  2px       -0.243886 -0.577935
  0He  2py        0.257157 -0.073115
  0He  1dz2      -0.000000 -0.000000
  0He  1dxz      -0.000000 -0.000000
  0He  1dyz      -0.000000  0.000000
  0He  1dx2y2     0.000000  0.000000
  0He  1dxy      -0.000000 -0.000000

MULLIKEN ATOMIC CHARGES
-----------------------
   0 He:    0.000000
Sum of atomic charges:    0.0000000

LOEWDIN ATOMIC CHARGES
----------------------
   0 He:    0.000000

E(0)                                       ...     -2.861153355
E(0)                                       ...     -2.861153355
E(CORR)(strong-pairs)                      ...     -0.037778983
E(CORR)(weak-pairs)                        ...     -0.000000000
E(CORR)(corrected)                         ...     -0.037778983
E(TOT)                                     ...     -2.898932338
E(CCSD(T))                                 ...     -2.898932338
FINAL SINGLE POINT ENERGY        -2.898932338033

DIPOLE MOMENT
-------------
                                X             Y             Z
Electronic contribution:      0.00000       0.00000       0.00000
Nuclear contribution   :      0.00000       0.00000       0.00000
                        -----------------------------------------
Total Dipole Moment    :      0.00000       0.00000       0.00000
                        -----------------------------------------
Magnitude (a.u.)       :      0.00000
Magnitude (Debye)      :      0.00000

Rotational constants in cm-1:     0.000000     0.000000     0.000000
Rotational constants in MHz :     0.000000     0.000000     0.000000

                             ****ORCA TERMINATED NORMALLY****
TOTAL RUN TIME: 0 days 0 hours 0 minutes 2 seconds 149 msec
