                         Program Version 4.2.1 -  RELEASE  -
|  1> ! BLYP D4 def2-TZVP RI def2/J Opt Freq TightSCF Grid4 FinalGrid5 PrintBasis PrintMOs
|  2> %maxcore 1150
|  3>
|  4> * xyzfile 0 1 init.xyz
|  5>
|  6> %cpcm
|  7>  smd true
|  8>  smdsolvent "dichloromethane"
|  9> end
| 10>
| 11> %geom
| 12>  maxiter 30
| 13>  trust 0.2
| 14>  inhess read
| 15>  inhessname "freq.hess"
| 16> end
| 17> %pal nprocs 11 end
| 18>
| 19>                          ****END OF INPUT****
 Total Charge           Charge          ....    0
 Multiplicity           Mult            ....    1
 Number of Electrons    NEL             ....   10
Dispersion correction           -0.000474312
FINAL SINGLE POINT ENERGY       -76.453716217563
Dispersion correction            ...
Dispersion correction           -0.000478304
FINAL SINGLE POINT ENERGY       -76.453968332808
Dispersion correction            ...
Dispersion correction           -0.000478073
FINAL SINGLE POINT ENERGY       -76.453967174606
Dispersion correction            ...
                    ***********************HURRAY********************

CARTESIAN COORDINATES (ANGSTROEM)
---------------------------------
  O      0.806898    0.127331    0.000000
  H      1.781630    0.174114    0.000000
  H      0.525572    1.061755    0.000000

 Multiplicity           Mult            ....    1
 Number of Electrons    NEL             ....   10
 Basis Dimension        Dim             ....   43

ORBITAL ENERGIES
----------------

  NO   OCC          E(Eh)            E(eV)
   0   2.0000     -18.764219      -510.6003
   1   2.0000      -0.904418       -24.6105
   2   2.0000      -0.459888       -12.5142
   3   2.0000      -0.326634        -8.8882
   4   2.0000      -0.249875        -6.7994
   5   0.0000       0.008310         0.2261
   6   0.0000       0.086630         2.3573
   7   0.0000       0.325020         8.8443
   8   0.0000       0.378149        10.2899
   9   0.0000       0.390744        10.6327

------------------
MOLECULAR ORBITALS
------------------
                      0         1         2         3         4         5
                 -18.76422  -0.90442  -0.45989  -0.32663  -0.24987   0.00831
                   2.00000   2.00000   2.00000   2.00000   2.00000   0.00000
                  --------  --------  --------  --------  --------  --------
  0O   1s        -0.435401 -0.098524 -0.000002 -0.037042  0.000000  0.036583
  0O   2s        -0.638737 -0.229659 -0.000004 -0.087768  0.000000  0.090319
  0O   3s        -0.037025  0.339470  0.000008  0.138304 -0.000000 -0.192196
  0O   4s         0.025229  0.430954  0.000002  0.184539 -0.000000 -0.044883
  0O   5s        -0.010160  0.165447  0.000034  0.229530  0.000000 -1.039231
  0O   1pz       -0.000000  0.000000 -0.000031 -0.000002 -0.478378 -0.000001
  0O   1px       -0.000997  0.052190 -0.318975 -0.241599  0.000037 -0.097198
  0O   1py       -0.001410  0.073851  0.225404 -0.341902 -0.000024 -0.137425
  0O   2pz        0.000000  0.000000 -0.000009 -0.000001 -0.370770 -0.000003
  0O   2px        0.001883  0.042335 -0.239312 -0.179712  0.000049 -0.062813
  0O   2py        0.002665  0.059908  0.169112 -0.254323 -0.000033 -0.088863
  0O   3pz       -0.000000  0.000000 -0.000052 -0.000002 -0.354690  0.000002
  0O   3px       -0.000689  0.006799 -0.113091 -0.145183  0.000023 -0.196979
  0O   3py       -0.000974  0.009628  0.079923 -0.205482 -0.000015 -0.278360
  0O   1dz2       0.000208 -0.004403  0.000000  0.004293 -0.000000 -0.000806
  0O   1dxz      -0.000000  0.000000 -0.000000 -0.000000 -0.002367 -0.000000
  0O   1dyz       0.000000 -0.000000 -0.000000  0.000000 -0.003349  0.000000
  0O   1dx2y2    -0.000024  0.000317 -0.010834  0.000876  0.000001  0.000709
  0O   1dxy       0.000069 -0.000894 -0.003837 -0.002474  0.000000 -0.001998
  0O   2dz2      -0.001016 -0.011060 -0.000001  0.010501 -0.000000 -0.003073
  0O   2dxz       0.000000  0.000003 -0.000001  0.000002 -0.013958 -0.000000
  0O   2dyz      -0.000000 -0.000002 -0.000002 -0.000002 -0.019753 -0.000000
  0O   2dx2y2     0.000126  0.000344 -0.021487  0.007150  0.000012  0.003727
  0O   2dxy      -0.000355 -0.000973 -0.007612 -0.020178  0.000005 -0.010505
  0O   1f0       -0.000000  0.000000  0.000000 -0.000000  0.004865  0.000000
  0O   1f+1      -0.000126 -0.001502  0.003790  0.001817 -0.000003  0.000576
  0O   1f-1      -0.000178 -0.002125 -0.002679  0.002571  0.000002  0.000817
  0O   1f+2       0.000000 -0.000000 -0.000000  0.000000 -0.000442 -0.000002
  0O   1f-2       0.000000 -0.000000  0.000001  0.000000  0.001247 -0.000001
  0O   1f+3      -0.000385 -0.003664 -0.000033  0.001122 -0.000000  0.000373
  0O   1f-3       0.000109  0.001033 -0.000117 -0.000316 -0.000001 -0.000106
  1H   1s        -0.000911  0.094034 -0.149122 -0.088713  0.000014  0.048745
  1H   2s        -0.001823  0.066893 -0.174164 -0.118856 -0.000017  0.107559
  1H   3s         0.002106  0.007592 -0.066850 -0.040147 -0.000047  0.891194
  1H   1pz       -0.000000  0.000008 -0.000013 -0.000010 -0.024060  0.000016
  1H   1px        0.001317 -0.017002  0.016466  0.008295  0.000011  0.033873
  1H   1py        0.000018  0.001631  0.009652 -0.016413 -0.000002 -0.000645
  2H   1s        -0.000911  0.094033  0.149117 -0.088722 -0.000014  0.048728
  2H   2s        -0.001823  0.066879  0.174130 -0.118839  0.000018  0.107526
  2H   3s         0.002106  0.007591  0.066836 -0.040120  0.000045  0.890366
  2H   1pz        0.000000 -0.000007 -0.000012  0.000008 -0.024057 -0.000014
  2H   1px       -0.000423  0.007211 -0.003605 -0.018236  0.000005 -0.011917
  2H   1py        0.001247 -0.015482 -0.018746  0.002341 -0.000010  0.031679
                      6         7         8         9        10        11
                   0.08663   0.32502   0.37815   0.39074   0.39579   0.53372
                   0.00000   0.00000   0.00000   0.00000   0.00000   0.00000
                  --------  --------  --------  --------  --------  --------
  0O   1s        -0.000011  0.000009 -0.033130 -0.000002  0.017466  0.000002
  0O   2s        -0.000027  0.000018 -0.071400 -0.000004  0.039566  0.000005
  0O   3s         0.000038  0.000021 -0.018160 -0.000001  0.000580  0.000005
  0O   4s         0.000111 -0.000260  0.786518  0.000043 -0.398814 -0.000066
  0O   5s         0.000110 -0.000085  0.250742  0.000021 -0.372529 -0.000020
  0O   1pz       -0.000063  0.000036 -0.000009  0.331713  0.000017 -0.000005
  0O   1px       -0.227486 -0.089742 -0.105850 -0.000012 -0.173949  0.290755
  0O   1py        0.160804  0.063376 -0.149796  0.000020 -0.246148 -0.205480
  0O   2pz       -0.000145  0.000083 -0.000020  0.692723  0.000034 -0.000022
  0O   2px       -0.123370 -0.255256 -0.178326  0.000130 -0.386140  0.589902
  0O   2py        0.087201  0.180251 -0.252438 -0.000061 -0.546360 -0.416901
  0O   3pz        0.000184 -0.000150  0.000034 -1.224671 -0.000062  0.000061
  0O   3px       -0.513006 -0.935882  0.879757 -0.000003  0.094751 -1.664850
  0O   3py        0.362625  0.661128  1.245406  0.000044  0.133395  1.176434
  0O   1dz2      -0.000000 -0.000005  0.015060  0.000001 -0.010841 -0.000001
  0O   1dxz      -0.000001  0.000000  0.000001  0.003566  0.000000 -0.000000
  0O   1dyz      -0.000001  0.000000 -0.000001  0.005045  0.000000 -0.000001
  0O   1dx2y2     0.001325  0.029821 -0.000140 -0.000005  0.003443  0.009794
  0O   1dxy       0.000470  0.010559  0.000406 -0.000001 -0.009739  0.003469
  0O   2dz2       0.000004  0.000027 -0.052919 -0.000003  0.023718 -0.000009
  0O   2dxz       0.000000  0.000002 -0.000005 -0.003411  0.000002  0.000000
  0O   2dyz       0.000002  0.000004  0.000004 -0.004816 -0.000002  0.000000
  0O   2dx2y2     0.024879 -0.106955 -0.000847  0.000066  0.001715 -0.056961
  0O   2dxy       0.008815 -0.037875  0.002425  0.000024 -0.004832 -0.020185
  0O   1f0        0.000001  0.000001  0.000000 -0.001687  0.000000 -0.000002
  0O   1f+1       0.000037  0.009454 -0.002833 -0.000005  0.003392  0.001419
  0O   1f-1      -0.000026 -0.006678 -0.004007  0.000003  0.004801 -0.001003
  0O   1f+2      -0.000000 -0.000000 -0.000001  0.000196 -0.000001  0.000000
  0O   1f-2       0.000001  0.000001 -0.000000 -0.000551 -0.000000 -0.000001
  0O   1f+3      -0.000811  0.001014 -0.009607 -0.000002  0.010687  0.000609
  0O   1f-3      -0.002876  0.003575  0.002708 -0.000004 -0.003013  0.002162
  1H   1s         0.047351  0.130384 -0.053967 -0.000003  0.117712 -0.069440
  1H   2s         0.054339  1.403470 -1.036054 -0.000356  1.235054 -0.072932
  1H   3s         1.535976 -0.601524  0.229773  0.000456 -0.671962  1.648371
  1H   1pz        0.000004  0.000015  0.000005  0.004243  0.000017 -0.000023
  1H   1px        0.047407 -0.094950  0.073657  0.000072 -0.049933 -0.041726
  1H   1py        0.007022  0.011852  0.005856  0.000000 -0.024428 -0.007061
  2H   1s        -0.047385 -0.130336 -0.053997 -0.000011  0.117769  0.069470
  2H   2s        -0.054376 -1.402570 -1.036362  0.000173  1.235540  0.073218
  2H   3s        -1.536350  0.601124  0.229769 -0.000369 -0.671915 -1.648537
  2H   1pz        0.000001  0.000011 -0.000005  0.004253 -0.000014 -0.000023
  2H   1px        0.009220 -0.042856 -0.019088  0.000022 -0.006345 -0.007285
  2H   1py       -0.047042  0.085480  0.071372 -0.000059 -0.055237  0.041677
                     12        13        14        15        16        17
                   0.57164   1.11665   1.14705   1.24582   1.48823   1.58932
                   0.00000   0.00000   0.00000   0.00000   0.00000   0.00000
                  --------  --------  --------  --------  --------  --------
  0O   1s        -0.051211 -0.003520  0.000004 -0.000000 -0.000004 -0.015156
  0O   2s        -0.105925 -0.008998  0.000010 -0.000000 -0.000015 -0.049339
  0O   3s        -0.085026  0.033311 -0.000054  0.000000  0.000139  0.353554
  0O   4s         2.214691  0.094302  0.000018  0.000001 -0.000314 -0.538887
  0O   5s        -4.801202 -0.871864  0.000493  0.000006 -0.000491 -1.775174
  0O   1pz        0.000000 -0.000001 -0.000010 -0.098653  0.000016  0.000000
  0O   1px        0.044526 -0.046783  0.000004  0.000014  0.085664  0.053042
  0O   1py        0.062982 -0.066226  0.000008 -0.000007 -0.060494  0.075037
  0O   2pz       -0.000001 -0.000001 -0.000001 -0.038478 -0.000006 -0.000000
  0O   2px        0.006182 -0.076901  0.000059 -0.000047 -0.669640 -0.254212
  0O   2py        0.008869 -0.108720  0.000084  0.000035  0.472985 -0.359899
  0O   3pz        0.000001 -0.000004  0.000007 -0.211605 -0.000023 -0.000001
  0O   3px       -0.761279 -0.320883  0.000144 -0.000019 -0.747351 -0.535248
  0O   3py       -1.077260 -0.454003  0.000210  0.000017  0.527826 -0.757960
  0O   1dz2      -0.016346  0.000237  0.000001 -0.000000 -0.000003 -0.003626
  0O   1dxz       0.000000 -0.000001 -0.007191  0.001198  0.000000 -0.000000
  0O   1dyz       0.000000  0.000001  0.005083  0.001696  0.000000  0.000000
  0O   1dx2y2     0.001711 -0.004160  0.000002 -0.000000  0.007539 -0.000635
  0O   1dxy      -0.004822  0.011750 -0.000004 -0.000000  0.002670  0.001798
  0O   2dz2       0.049148 -0.133069  0.000007  0.000004  0.000364  1.100673
  0O   2dxz      -0.000006 -0.000141 -0.452869  0.390936 -0.000013 -0.000007
  0O   2dyz       0.000004  0.000106  0.320020  0.553186 -0.000014  0.000000
  0O   2dx2y2     0.000620 -0.171112  0.000055 -0.000034 -1.110514 -0.088688
  0O   2dxy      -0.001878  0.482966 -0.000149 -0.000020 -0.393250  0.251389
  0O   1f0        0.000000  0.000000 -0.000000  0.003216  0.000001  0.000000
  0O   1f+1       0.003095  0.001916 -0.000003  0.000004  0.040593  0.019102
  0O   1f-1       0.004370  0.002705 -0.000005 -0.000003 -0.028667  0.027041
  0O   1f+2       0.000002  0.000002  0.007544 -0.003899  0.000000 -0.000000
  0O   1f-2       0.000001  0.000001  0.002672  0.011002 -0.000001 -0.000000
  0O   1f+3       0.010914  0.006877 -0.000009  0.000001  0.010483  0.046034
  0O   1f-3      -0.003077 -0.001937  0.000002  0.000003  0.037103 -0.012987
  1H   1s        -0.022971 -0.034350  0.000038 -0.000022 -0.384042 -0.339591
  1H   2s         0.935858  0.550282 -0.000307  0.000061  2.091573  1.959644
  1H   3s         0.967160  0.047649 -0.000032  0.000009 -0.525422 -0.188901
  1H   1pz       -0.000030 -0.000113 -0.418059  0.377429  0.000011 -0.000005
  1H   1px       -0.084452 -0.068409  0.000081 -0.000047 -0.332629 -0.207789
  1H   1py       -0.021892  0.418521 -0.000132  0.000010 -0.243679  0.014767
  2H   1s        -0.022973 -0.034327  0.000034  0.000020  0.383751 -0.339792
  2H   2s         0.935698  0.550117 -0.000306 -0.000069 -2.090199  1.960738
  2H   3s         0.967324  0.047674 -0.000037 -0.000010  0.525247 -0.189155
  2H   1pz        0.000030  0.000126  0.418076  0.377441  0.000009  0.000008
  2H   1px        0.007566  0.417345 -0.000145 -0.000032  0.118714  0.083127
  2H   1py       -0.086847  0.075307  0.000036  0.000041  0.394674 -0.191042
                     18        19        20        21        22        23
                   1.69955   1.93435   1.99479   2.03507   2.23390   2.29868
                   0.00000   0.00000   0.00000   0.00000   0.00000   0.00000
                  --------  --------  --------  --------  --------  --------
  0O   1s         0.000001  0.014727  0.000000 -0.000001 -0.000008 -0.017551
  0O   2s         0.000003  0.062181  0.000001 -0.000006 -0.000025 -0.064523
  0O   3s        -0.000026 -0.774055 -0.000008  0.000100  0.000101  0.578040
  0O   4s         0.000061  2.377119  0.000018 -0.000392 -0.000033 -1.233126
  0O   5s        -0.000038 -0.133840 -0.000011  0.000140  0.000195 -0.577857
  0O   1pz       -0.000011 -0.000003  0.344933 -0.000001 -0.000162  0.000009
  0O   1px       -0.133086 -0.251199 -0.000018  0.000079 -0.375783 -0.280682
  0O   1py        0.094033 -0.355444  0.000006  0.000108  0.265740 -0.397025
  0O   2pz        0.000010  0.000001 -0.218148 -0.000013  0.000183 -0.000011
  0O   2px        0.201157  0.747520  0.000186 -0.000166  1.689569  0.027483
  0O   2py       -0.142122  1.057577 -0.000119 -0.000209 -1.194084  0.038591
  0O   3pz        0.000015 -0.000004  0.500035 -0.000017 -0.000086  0.000006
  0O   3px       -0.308047 -0.038149  0.000017  0.000056 -0.351219 -0.497261
  0O   3py        0.217673 -0.053901 -0.000015  0.000080  0.248336 -0.703497
  0O   1dz2       0.000000  0.004879 -0.000000 -0.000000  0.000006  0.001368
  0O   1dxz      -0.000000 -0.000002 -0.004017 -0.008556 -0.000000 -0.000000
  0O   1dyz       0.000000  0.000001 -0.005680  0.006046 -0.000000  0.000000
  0O   1dx2y2    -0.009812 -0.000417 -0.000003  0.000000 -0.039518  0.001857
  0O   1dxy      -0.003475  0.001167 -0.000001  0.000001 -0.013992 -0.005238
  0O   2dz2       0.000038  0.138022  0.000005 -0.000087 -0.000049  0.207644
  0O   2dxz       0.000038  0.000223  0.500225  0.862165 -0.000022  0.000032
  0O   2dyz       0.000028 -0.000167  0.707758 -0.609350 -0.000037 -0.000019
  0O   2dx2y2     0.403441  0.066792  0.000029 -0.000032  0.085781  0.322177
  0O   2dxy       0.142898 -0.188683  0.000022  0.000058  0.030444 -0.909789
  0O   1f0       -0.000001 -0.000000  0.008020  0.000002 -0.000003  0.000000
  0O   1f+1      -0.013474 -0.038134 -0.000012  0.000008 -0.093228  0.013863
  0O   1f-1       0.009521 -0.053951  0.000008  0.000009  0.065881  0.019632
  0O   1f+2       0.000001  0.000001 -0.004821 -0.008202  0.000000 -0.000002
  0O   1f-2      -0.000001  0.000000  0.013598 -0.002905 -0.000002 -0.000001
  0O   1f+3      -0.003888 -0.132400 -0.000003  0.000027 -0.018333  0.069403
  0O   1f-3      -0.013784  0.037325 -0.000009 -0.000007 -0.065002 -0.019573
  1H   1s         0.115774  0.698399  0.000046 -0.000185  0.553416 -0.239859
  1H   2s        -0.400707 -1.865257 -0.000208  0.000353 -1.836217  1.028566
  1H   3s         0.350257  0.510293  0.000031 -0.000135  0.820258 -0.039848
  1H   1pz       -0.000023 -0.000168 -0.740802 -0.749389  0.000047 -0.000040
  1H   1px        0.126904  0.721484  0.000151 -0.000101  1.001015 -0.454561
  1H   1py       -0.757895  0.159910  0.000025 -0.000046  0.115389  0.695693
  2H   1s        -0.115759  0.698372 -0.000031 -0.000180 -0.553538 -0.240038
  2H   2s         0.400712 -1.865164  0.000192  0.000312  1.836184  1.028850
  2H   3s        -0.350249  0.510262 -0.000021 -0.000122 -0.820396 -0.040069
  2H   1pz       -0.000009  0.000180 -0.740711  0.749477  0.000052  0.000034
  2H   1px        0.756770 -0.090125  0.000015 -0.000030  0.225277  0.807531
  2H   1py        0.133447  0.733315 -0.000149 -0.000100 -0.981913 -0.196279
                     24        25        26        27        28        29
                   2.47367   2.50802   2.51626   2.68307   3.55284   3.81058
                   0.00000   0.00000   0.00000   0.00000   0.00000   0.00000
                  --------  --------  --------  --------  --------  --------
  0O   1s         0.000017  0.035107  0.000009  0.114697 -0.055661 -0.000001
  0O   2s         0.000047  0.096496  0.000025  0.375485 -0.221643 -0.000002
  0O   3s        -0.000134 -0.157249 -0.000047 -2.238142  2.410309 -0.000023
  0O   4s        -0.000197 -0.859155 -0.000202  2.715307 -5.264581  0.000110
  0O   5s        -0.000547 -1.399203 -0.000348 -3.049123  0.467138  0.000138
  0O   1pz        0.000331 -0.000289  1.152092 -0.000002 -0.000000 -0.000020
  0O   1px       -0.736482 -0.441442  0.000069  0.265910  0.304531  0.580944
  0O   1py        0.520146 -0.625193 -0.000277  0.376241  0.430882 -0.410556
  0O   2pz       -0.000461  0.000417 -1.669729  0.000003  0.000000  0.000038
  0O   2px       -0.076288  0.086653  0.000165 -0.714034 -1.415500 -2.588802
  0O   2py        0.053955  0.122247 -0.000074 -1.010403 -2.002867  1.829593
  0O   3pz        0.000165 -0.000144  0.566088 -0.000001 -0.000000 -0.000018
  0O   3px       -0.873459 -0.387022  0.000117 -0.236179  0.004159  0.100675
  0O   3py        0.617008 -0.548300 -0.000281 -0.334226  0.005868 -0.071074
  0O   1dz2      -0.000008 -0.020032 -0.000005  0.000625 -0.035260 -0.000004
  0O   1dxz       0.000001 -0.000001  0.002301 -0.000001  0.000002  0.000001
  0O   1dyz       0.000001 -0.000000  0.003260  0.000001 -0.000001  0.000001
  0O   1dx2y2     0.039508  0.002356 -0.000014  0.002322  0.013941  0.032789
  0O   1dxy       0.013990 -0.006712 -0.000007 -0.006557 -0.039366  0.011615
  0O   2dz2       0.000185  0.476443  0.000118  0.428636  0.954200 -0.000052
  0O   2dxz      -0.000031  0.000057 -0.156579 -0.000003  0.000015  0.000004
  0O   2dyz      -0.000040  0.000037 -0.221542  0.000003 -0.000010  0.000007
  0O   2dx2y2    -0.847472 -0.251070  0.000155  0.074964 -0.068142 -1.585154
  0O   2dxy      -0.299807  0.709878  0.000259 -0.211711  0.192266 -0.561440
  0O   1f0       -0.000004  0.000004 -0.017976  0.000000  0.000000  0.000007
  0O   1f+1       0.052680  0.031877 -0.000019  0.004808 -0.056232 -0.229969
  0O   1f-1      -0.037205  0.045172  0.000030  0.006814 -0.079563  0.162529
  0O   1f+2       0.000001 -0.000001  0.003187  0.000000 -0.000008 -0.000002
  0O   1f-2      -0.000003  0.000002 -0.008995  0.000000 -0.000003  0.000007
  0O   1f+3       0.010759  0.075903  0.000014  0.042037 -0.133161 -0.026301
  0O   1f-3       0.038081 -0.021425 -0.000022 -0.011856  0.037540 -0.093292
  1H   1s         0.141240  0.068209  0.000067  0.080782  0.667043  0.906856
  1H   2s         1.133171  1.184976 -0.000208  0.931558  1.664140  1.511863
  1H   3s         0.338420  0.130420  0.000016  0.344864 -0.358153 -0.393502
  1H   1pz        0.000063 -0.000108  0.343487 -0.000003 -0.000020 -0.000011
  1H   1px       -1.034746 -0.929163  0.000130 -0.539502 -1.369291 -1.310197
  1H   1py        0.026089 -0.472993 -0.000128  0.301385  0.132924 -0.178127
  2H   1s        -0.141118  0.068153 -0.000030  0.080685  0.666978 -0.906874
  2H   2s        -1.132414  1.186239  0.000786  0.931698  1.664105 -1.512146
  2H   3s        -0.338289  0.130487  0.000050  0.344829 -0.358145  0.393507
  2H   1pz        0.000060 -0.000054  0.343469 -0.000000  0.000020 -0.000012
  2H   1px       -0.370223 -0.135329  0.000088  0.464224  0.582449 -0.269589
  2H   1py        0.965894 -1.034675 -0.000594 -0.407978 -1.246296  1.294620
                     30        31        32        33        34        35
                   5.00360   5.10283   5.26656   5.29335   5.34292   5.86607
                   0.00000   0.00000   0.00000   0.00000   0.00000   0.00000
                  --------  --------  --------  --------  --------  --------
  0O   1s        -0.000000 -0.000187  0.000000 -0.000000  0.000000  0.000000
  0O   2s        -0.000000 -0.001739  0.000000 -0.000000 -0.000000  0.000001
  0O   3s         0.000000  0.044218 -0.000000  0.000005 -0.000002 -0.000005
  0O   4s        -0.000001 -0.115937  0.000001 -0.000016  0.000005  0.000001
  0O   5s         0.000000 -0.174108  0.000001  0.000016  0.000030 -0.000022
  0O   1pz        0.004050  0.000000  0.059118  0.000019 -0.000002  0.000003
  0O   1px       -0.000004  0.026116  0.000001  0.000001  0.094396 -0.230120
  0O   1py        0.000003  0.036957 -0.000001 -0.000001 -0.066708  0.162622
  0O   2pz       -0.010995 -0.000000 -0.153636 -0.000049  0.000004 -0.000007
  0O   2px        0.000019 -0.102012 -0.000002 -0.000006 -0.442839  1.268291
  0O   2py       -0.000014 -0.144366  0.000003  0.000002  0.312958 -0.896294
  0O   3pz       -0.005097 -0.000000 -0.071087 -0.000020  0.000002  0.000002
  0O   3px       -0.000003 -0.063083 -0.000005  0.000002 -0.120297 -0.148185
  0O   3py        0.000002 -0.089266  0.000004  0.000006  0.085028  0.104710
  0O   1dz2      -0.000000  0.042666 -0.000000 -0.000005 -0.000000  0.000011
  0O   1dxz       0.005891  0.000006 -0.110336  0.220836  0.000000 -0.000002
  0O   1dyz       0.008336 -0.000004 -0.155994 -0.156119  0.000007 -0.000004
  0O   1dx2y2     0.000001  0.052943 -0.000006 -0.000000 -0.000413  0.677253
  0O   1dxy       0.000000 -0.149462 -0.000001 -0.000000 -0.000144  0.239873
  0O   2dz2       0.000000  0.025956 -0.000000 -0.000000 -0.000007 -0.000001
  0O   2dxz      -0.017949  0.000002 -0.038671  0.054113  0.000000 -0.000001
  0O   2dyz      -0.025396 -0.000002 -0.054679 -0.038268  0.000002 -0.000001
  0O   2dx2y2     0.000011  0.021485 -0.000001 -0.000003 -0.211782  0.478295
  0O   2dxy       0.000004 -0.060649 -0.000000  0.000001 -0.075011  0.169402
  0O   1f0       -0.256640  0.000002  0.987587  0.000298 -0.000027  0.000011
  0O   1f+1       0.000001  0.508637  0.000021 -0.000012  0.480130 -0.528754
  0O   1f-1      -0.000001  0.719730 -0.000017 -0.000030 -0.339312  0.373658
  0O   1f+2      -0.322657  0.000027 -0.089542  0.957669 -0.000007  0.000000
  0O   1f-2       0.910973  0.000010  0.251895  0.339281 -0.000017 -0.000001
  0O   1f+3      -0.000002 -0.456576 -0.000004 -0.000000 -0.238258 -0.132609
  0O   1f-3      -0.000007  0.128719 -0.000018 -0.000011 -0.845093 -0.470326
  1H   1s        -0.000007  0.007828  0.000009 -0.000005  0.135944 -0.613457
  1H   2s        -0.000010  0.167794 -0.000007  0.000009  0.309415 -0.542492
  1H   3s         0.000003  0.000010  0.000006 -0.000005 -0.023684  0.148169
  1H   1pz        0.018855 -0.000009  0.260120 -0.257711 -0.000004  0.000007
  1H   1px        0.000009 -0.070729 -0.000001 -0.000003 -0.188525  0.739028
  1H   1py       -0.000002  0.170572 -0.000009 -0.000007 -0.303521 -0.010348
  2H   1s         0.000007  0.007830 -0.000009 -0.000008 -0.135945  0.613452
  2H   2s         0.000010  0.167807  0.000005  0.000002 -0.309455  0.542523
  2H   3s        -0.000004  0.000008 -0.000006 -0.000004  0.023681 -0.148167
  2H   1pz        0.018850  0.000009  0.259960  0.257867 -0.000011  0.000007
  2H   1px        0.000005  0.184405  0.000007 -0.000000  0.223155  0.256495
  2H   1py       -0.000008 -0.009732  0.000003  0.000001  0.279054 -0.693180
                     36        37        38        39        40        41
                   6.05873   6.18453   6.24371   6.30269   6.74228   6.87528
                   0.00000   0.00000   0.00000   0.00000   0.00000   0.00000
                  --------  --------  --------  --------  --------  --------
  0O   1s         0.016611  0.000000  0.000001  0.004164  0.023211 -0.000001
  0O   2s         0.056501 -0.000000  0.000003  0.016077  0.079933 -0.000003
  0O   3s        -0.786699  0.000000 -0.000036 -0.266333 -1.222161  0.000054
  0O   4s         1.855689 -0.000001  0.000081  0.629463  2.795032 -0.000131
  0O   5s        -0.361820 -0.000000  0.000004  0.355543  0.619673 -0.000073
  0O   1pz       -0.000000  0.025863  0.000003  0.000000 -0.000000  0.000003
  0O   1px       -0.087227  0.000000 -0.000005 -0.053895 -0.147793 -0.302436
  0O   1py       -0.123423 -0.000000 -0.000007 -0.076258 -0.209122  0.213743
  0O   2pz        0.000000 -0.099861 -0.000007 -0.000000  0.000000 -0.000006
  0O   2px        0.498399 -0.000001  0.000027  0.295468  0.870522  1.624143
  0O   2py        0.705229 -0.000000  0.000041  0.418071  1.231772 -1.147865
  0O   3pz       -0.000000 -0.048883  0.000000 -0.000000 -0.000000  0.000003
  0O   3px       -0.082527 -0.000004  0.000004  0.121264  0.145128  0.249957
  0O   3py       -0.116780  0.000002  0.000005  0.171585  0.205333 -0.176682
  0O   1dz2      -0.879696 -0.000001  0.000009  0.536419  0.601691 -0.000032
  0O   1dxz      -0.000025  0.670036  0.941019 -0.000063  0.000009  0.000005
  0O   1dyz       0.000018  0.948223 -0.664947  0.000048 -0.000007  0.000006
  0O   1dx2y2     0.119796  0.000007  0.000028  0.349715 -0.148072 -0.950385
  0O   1dxy      -0.338232  0.000005 -0.000080 -0.987450  0.417927 -0.336608
  0O   2dz2       0.104388  0.000001 -0.000021 -0.482093 -1.096489  0.000062
  0O   2dxz       0.000012 -0.404243 -0.623011  0.000041 -0.000009 -0.000004
  0O   2dyz      -0.000009 -0.572081  0.440239 -0.000031  0.000007 -0.000005
  0O   2dx2y2    -0.023227 -0.000007 -0.000020 -0.239856  0.217339  1.785093
  0O   2dxy       0.065605 -0.000004  0.000053  0.677285 -0.613456  0.632260
  0O   1f0       -0.000000  0.208588  0.000007  0.000001 -0.000000  0.000004
  0O   1f+1      -0.180694  0.000003 -0.000010 -0.128560 -0.254593 -0.506988
  0O   1f-1      -0.255685 -0.000002 -0.000015 -0.181902 -0.360229  0.358315
  0O   1f+2      -0.000002 -0.016440 -0.287151  0.000016 -0.000008  0.000000
  0O   1f-2      -0.000001  0.046428 -0.101704  0.000006 -0.000003 -0.000000
  0O   1f+3      -0.532202  0.000001 -0.000006 -0.038932 -0.896965 -0.124238
  0O   1f-3       0.150044  0.000002  0.000002  0.010969  0.252873 -0.440797
  1H   1s        -0.447803  0.000003 -0.000013 -0.135779 -0.779361 -0.872739
  1H   2s        -0.276343  0.000002 -0.000029 -0.442015 -1.198273 -1.158358
  1H   3s         0.076704  0.000002  0.000003  0.013113  0.085341  0.159534
  1H   1pz        0.000000  0.179014  0.223135 -0.000012  0.000006  0.000003
  1H   1px        0.536431 -0.000000  0.000025  0.254605  0.904120  0.840747
  1H   1py       -0.002122  0.000001 -0.000021 -0.263938  0.142346 -0.003004
  2H   1s        -0.447798 -0.000003 -0.000014 -0.135758 -0.779312  0.872808
  2H   2s        -0.276316 -0.000001 -0.000030 -0.441991 -1.198227  1.158532
  2H   3s         0.076696 -0.000002  0.000004  0.013111  0.085347 -0.159539
  2H   1pz       -0.000000  0.179028 -0.223121  0.000014 -0.000007  0.000003
  2H   1px       -0.181090 -0.000000 -0.000028 -0.333790 -0.167658  0.283566
  2H   1py        0.504928 -0.000001  0.000018  0.151865  0.899740 -0.791600
                     42
                  42.82392
                   0.00000
                  --------
  0O   1s         1.390199
  0O   2s        -1.697299
  0O   3s         1.597868
  0O   4s        -1.783285
  0O   5s         0.712873
  0O   1pz        0.000000
  0O   1px        0.023129
  0O   1py        0.032728
  0O   2pz        0.000000
  0O   2px       -0.143522
  0O   2py       -0.203090
  0O   3pz       -0.000000
  0O   3px        0.038651
  0O   3py        0.054694
  0O   1dz2      -0.010148
  0O   1dxz      -0.000000
  0O   1dyz       0.000000
  0O   1dx2y2     0.001393
  0O   1dxy      -0.003931
  0O   2dz2       0.100770
  0O   2dxz       0.000000
  0O   2dyz      -0.000000
  0O   2dx2y2    -0.013999
  0O   2dxy       0.039522
  0O   1f0       -0.000000
  0O   1f+1       0.015663
  0O   1f-1       0.022164
  0O   1f+2       0.000000
  0O   1f-2       0.000000
  0O   1f+3       0.049944
  0O   1f-3      -0.014081
  1H   1s         0.092421
  1H   2s         0.170252
  1H   3s        -0.153858
  1H   1pz       -0.000000
  1H   1px       -0.134061
  1H   1py       -0.006134
  2H   1s         0.092421
  2H   2s         0.170252
  2H   3s        -0.153859
  2H   1pz        0.000000
  2H   1px        0.038976
  2H   1py       -0.128416

MULLIKEN ATOMIC CHARGES
-----------------------
   0 O :   -0.677710
   1 H :    0.338815
   2 H :    0.338896
Sum of atomic charges:   -0.0000000

LOEWDIN ATOMIC CHARGES
----------------------
   0 O :   -0.345079
   1 H :    0.172525
   2 H :    0.172554

  Mayer bond orders larger than 0.100000
B(  0-O ,  1-H ) :   0.8948 B(  0-O ,  2-H ) :   0.8947

Dispersion correction           -0.000478060
FINAL SINGLE POINT ENERGY       -76.453967174342

DIPOLE MOMENT
-------------
                                X             Y             Z
Electronic contribution:     -0.05788      -0.08177      -0.00000
Nuclear contribution   :      0.57716       0.81672       0.00000
                        -----------------------------------------
Total Dipole Moment    :      0.51929       0.73494      -0.00000
                        -----------------------------------------
Magnitude (a.u.)       :      0.89989
Magnitude (Debye)      :      2.28734

Dispersion correction in the Hessian             ...

VIBRATIONAL FREQUENCIES
-----------------------

Scaling factor for frequencies =  1.000000000  (already applied!)

   0:         0.00 cm**-1
   1:         0.00 cm**-1
   2:         0.00 cm**-1
   3:         0.00 cm**-1
   4:         0.00 cm**-1
   5:         0.00 cm**-1
   6:      1555.42 cm**-1
   7:      3601.85 cm**-1
   8:      3686.62 cm**-1

IR SPECTRUM
-----------

 Mode    freq (cm**-1)   T**2         TX         TY         TZ
-------------------------------------------------------------------
   6:      1555.42  104.164594  ( -5.883189  -8.339825   0.000765)
   7:      3601.85   12.385965  (  2.023908   2.879194   0.000124)
   8:      3686.62   79.294357  (  7.290413  -5.113144  -0.000296)

--------------------------
THERMOCHEMISTRY AT 298.15K
--------------------------

Temperature         ... 298.15 K
Pressure            ... 1.00 atm
Total Mass          ... 18.02 AMU

Throughout the following assumptions are being made:
  (1) The electronic state is orbitally nondegenerate
  (2) There are no thermally accessible electronically excited states
  (3) Hindered rotations indicated by low frequency modes are not
      treated as such but are treated as vibrations and this may
      cause some error
  (4) All equations used are the standard statistical mechanics
      equations for an ideal gas
  (5) All vibrations are strictly harmonic

freq.    1555.42  E(vib)   ...       0.00
freq.    3601.85  E(vib)   ...       0.00
freq.    3686.62  E(vib)   ...       0.00

------------
INNER ENERGY
------------

The inner energy is: U= E(el) + E(ZPE) + E(vib) + E(rot) + E(trans)
    E(el)   - is the total energy from the electronic structure calculation
              = E(kin-el) + E(nuc-el) + E(el-el) + E(nuc-nuc)
    E(ZPE)  - the the zero temperature vibrational energy from the frequency calculation
    E(vib)  - the the finite temperature correction to E(ZPE) due to population
              of excited vibrational states
    E(rot)  - is the rotational thermal energy
    E(trans)- is the translational thermal energy

Summary of contributions to the inner energy U:
Electronic energy                ...    -76.45396717 Eh
Zero point energy                ...      0.02014788 Eh      12.64 kcal/mol
Thermal vibrational correction   ...      0.00000390 Eh       0.00 kcal/mol
Thermal rotational correction    ...      0.00141627 Eh       0.89 kcal/mol
Thermal translational correction ...      0.00141627 Eh       0.89 kcal/mol
-----------------------------------------------------------------------
Total thermal energy                    -76.43098285 Eh

Summary of corrections to the electronic energy:
(perhaps to be used in another calculation)
Total thermal correction                  0.00283644 Eh       1.78 kcal/mol
Non-thermal (ZPE) correction              0.02014788 Eh      12.64 kcal/mol
-----------------------------------------------------------------------
Total correction                          0.02298432 Eh      14.42 kcal/mol

--------
ENTHALPY
--------

The enthalpy is H = U + kB*T
                kB is Boltzmann's constant
Total free energy                 ...    -76.43098285 Eh
Thermal Enthalpy correction       ...      0.00094421 Eh       0.59 kcal/mol
-----------------------------------------------------------------------
Total Enthalpy                    ...    -76.43003864 Eh

Note: Rotational entropy computed according to Herzberg
Infrared and Raman Spectra, Chapter V,1, Van Nostrand Reinhold, 1945
Point Group:  Cs, Symmetry Number:   1
Rotational constants in cm-1:    26.089578    14.139279     9.169732

Vibrational entropy computed according to the QRRHO of S. Grimme
Chem.Eur.J. 2012 18 9955

-------
ENTROPY
-------

The entropy contributions are T*S = T*(S(el)+S(vib)+S(rot)+S(trans))
     S(el)   - electronic entropy
     S(vib)  - vibrational entropy
     S(rot)  - rotational entropy
     S(trans)- translational entropy
The entropies will be listed as mutliplied by the temperature to get
units of energy

Electronic entropy                ...      0.00000000 Eh      0.00 kcal/mol
Vibrational entropy               ...      0.00000442 Eh      0.00 kcal/mol
Rotational entropy                ...      0.00567441 Eh      3.56 kcal/mol
Translational entropy             ...      0.01644380 Eh     10.32 kcal/mol
-----------------------------------------------------------------------
Final entropy term                ...      0.02212264 Eh     13.88 kcal/mol

In case the symmetry of your molecule has not been determined correctly
or in case you have a reason to use a different symmetry number we print
out the resulting rotational entropy values for sn=1,12 :
 --------------------------------------------------------
|  sn= 1 | S(rot)=       0.00567441 Eh      3.56 kcal/mol|
|  sn= 2 | S(rot)=       0.00501996 Eh      3.15 kcal/mol|
|  sn= 3 | S(rot)=       0.00463713 Eh      2.91 kcal/mol|
|  sn= 4 | S(rot)=       0.00436550 Eh      2.74 kcal/mol|
|  sn= 5 | S(rot)=       0.00415481 Eh      2.61 kcal/mol|
|  sn= 6 | S(rot)=       0.00398267 Eh      2.50 kcal/mol|
|  sn= 7 | S(rot)=       0.00383712 Eh      2.41 kcal/mol|
|  sn= 8 | S(rot)=       0.00371104 Eh      2.33 kcal/mol|
|  sn= 9 | S(rot)=       0.00359984 Eh      2.26 kcal/mol|
|  sn=10 | S(rot)=       0.00350036 Eh      2.20 kcal/mol|
|  sn=11 | S(rot)=       0.00341037 Eh      2.14 kcal/mol|
|  sn=12 | S(rot)=       0.00332821 Eh      2.09 kcal/mol|
 --------------------------------------------------------

-------------------
GIBBS FREE ENERGY
-------------------

The Gibbs free energy is G = H - T*S

Total enthalpy                    ...    -76.43003864 Eh
Total entropy correction          ...     -0.02212264 Eh    -13.88 kcal/mol
-----------------------------------------------------------------------
Final Gibbs free energy         ...    -76.45216128 Eh

For completeness - the Gibbs free energy minus the electronic energy
G-E(el)                           ...      0.00180590 Eh      1.13 kcal/mol

                             ****ORCA TERMINATED NORMALLY****
TOTAL RUN TIME: 0 days 0 hours 0 minutes 29 seconds 700 msec
