                         Program Version 4.2.1 -  RELEASE  -
|  1> ! UHF MP2 6-311G(d,p) Freq NoFrozenCore TightSCF Grid4 FinalGrid5 PrintBasis PrintMOs NBO
|  2> %maxcore 3000
|  3>
|  4> *xyz 0 2
|  5> Cl       0.000000000      0.000000000      0.000000000
|  6> *
|  7>
|  8> %pal
|  9>  nprocs 12
| 10> end
| 11>
| 12>                          ****END OF INPUT****

CARTESIAN COORDINATES (ANGSTROEM)
---------------------------------
  Cl     0.000000    0.000000    0.000000

 Total Charge           Charge          ....    0
 Multiplicity           Mult            ....    2
 Number of Electrons    NEL             ....   17
 Basis Dimension        Dim             ....   26

ORBITAL ENERGIES
----------------
                 SPIN UP ORBITALS
  NO   OCC          E(Eh)            E(eV)
   0   1.0000    -104.891971     -2854.2556
   1   1.0000     -10.615642      -288.8663
   2   1.0000      -8.102167      -220.4712
   3   1.0000      -8.076801      -219.7809
   4   1.0000      -8.076801      -219.7809
   5   1.0000      -1.138275       -30.9741
   6   1.0000      -0.580714       -15.8020
   7   1.0000      -0.505978       -13.7684
   8   1.0000      -0.505978       -13.7684
   9   0.0000       0.375501        10.2179
  10   0.0000       0.406766        11.0687
  11   0.0000       0.406766        11.0687
  12   0.0000       0.744585        20.2612
  13   0.0000       1.040733        28.3198

                 SPIN DOWN ORBITALS
  NO   OCC          E(Eh)            E(eV)
   0   1.0000    -104.880863     -2853.9534
   1   1.0000     -10.604120      -288.5528
   2   1.0000      -8.070834      -219.6186
   3   1.0000      -8.070834      -219.6186
   4   1.0000      -8.053096      -219.1359
   5   1.0000      -1.016151       -27.6509
   6   1.0000      -0.480123       -13.0648
   7   1.0000      -0.480123       -13.0648
   8   0.0000      -0.047500        -1.2925
   9   0.0000       0.412888        11.2353
  10   0.0000       0.412888        11.2353
  11   0.0000       0.448835        12.2134
  12   0.0000       0.773637        21.0517

------------------
MOLECULAR ORBITALS
------------------
                      0         1         2         3         4         5
                 -104.89197 -10.61564  -8.10217  -8.07680  -8.07680  -1.13828
                   1.00000   1.00000   1.00000   1.00000   1.00000   1.00000
                  --------  --------  --------  --------  --------  --------
  0Cl  1s         0.411715 -0.121998  0.000000  0.000000 -0.000000 -0.037171
  0Cl  2s         0.654659 -0.331594  0.000000  0.000000 -0.000000 -0.107466
  0Cl  3s         0.012130  0.512286 -0.000000 -0.000000  0.000000  0.211661
  0Cl  4s        -0.000915  0.605573 -0.000000 -0.000000  0.000000  0.430689
  0Cl  5s         0.000172  0.040907  0.000000 -0.000000 -0.000000 -0.666643
  0Cl  6s        -0.000084 -0.007143  0.000000 -0.000000  0.000000 -0.554291
  0Cl  1pz       -0.000000 -0.000000 -0.078997 -1.171538 -0.371383 -0.000000
  0Cl  1px       -0.000000 -0.000000  1.192264  0.016357 -0.305491  0.000000
  0Cl  1py        0.000000  0.000000 -0.295376  0.379348 -1.133766 -0.000000
  0Cl  2pz       -0.000000 -0.000000 -0.021008 -0.311352 -0.098700 -0.000000
  0Cl  2px       -0.000000 -0.000000  0.317061  0.004347 -0.081188  0.000000
  0Cl  2py        0.000000  0.000000 -0.078550  0.100817 -0.301313 -0.000000
  0Cl  3pz        0.000000  0.000000 -0.003219 -0.046336 -0.014689  0.000000
  0Cl  3px        0.000000  0.000000  0.048577  0.000647 -0.012083 -0.000000
  0Cl  3py       -0.000000 -0.000000 -0.012035  0.015004 -0.044842  0.000000
  0Cl  4pz       -0.000000  0.000000  0.000128  0.001752  0.000555  0.000000
  0Cl  4px       -0.000000  0.000000 -0.001933 -0.000024  0.000457 -0.000000
  0Cl  4py        0.000000 -0.000000  0.000479 -0.000567  0.001696 -0.000000
  0Cl  5pz        0.000000 -0.000000 -0.000042 -0.000564 -0.000179  0.000000
  0Cl  5px        0.000000 -0.000000  0.000636  0.000008 -0.000147 -0.000000
  0Cl  5py       -0.000000  0.000000 -0.000157  0.000183 -0.000545  0.000000
  0Cl  1dz2       0.000000 -0.000403 -0.000000  0.000000 -0.000000  0.016191
  0Cl  1dxz       0.000000 -0.000088  0.000000  0.000000  0.000000  0.003531
  0Cl  1dyz      -0.000000  0.000022  0.000000 -0.000000  0.000000 -0.000875
  0Cl  1dx2y2    -0.000000  0.000622 -0.000000 -0.000000  0.000000 -0.025007
  0Cl  1dxy       0.000000 -0.000328 -0.000000 -0.000000  0.000000  0.013201
                      6         7         8         9        10        11
                  -0.58071  -0.50598  -0.50598   0.37550   0.40677   0.40677
                   1.00000   1.00000   1.00000   0.00000   0.00000   0.00000
                  --------  --------  --------  --------  --------  --------
  0Cl  1s         0.000000 -0.000000  0.000000  0.000000  0.000000  0.000000
  0Cl  2s         0.000000 -0.000000  0.000000  0.000000  0.000000  0.000000
  0Cl  3s         0.000000  0.000000  0.000000  0.000000 -0.000000  0.000000
  0Cl  4s        -0.000000  0.000000 -0.000000 -0.000000 -0.000000 -0.000000
  0Cl  5s        -0.000000 -0.000000  0.000000  0.000000  0.000000 -0.000000
  0Cl  6s        -0.000000 -0.000000  0.000000 -0.000000 -0.000000  0.000000
  0Cl  1pz        0.022527 -0.157922 -0.302394  0.011572 -0.083500 -0.165283
  0Cl  1px       -0.339989 -0.082727  0.019177 -0.174644 -0.045041  0.009803
  0Cl  1py        0.084230 -0.291685  0.158281  0.043267 -0.159472  0.083773
  0Cl  2pz        0.005407 -0.037679 -0.072149  0.001897 -0.013317 -0.026360
  0Cl  2px       -0.081603 -0.019738  0.004576 -0.028624 -0.007183  0.001563
  0Cl  2py        0.020217 -0.069594  0.037765  0.007091 -0.025433  0.013360
  0Cl  3pz       -0.016225  0.114685  0.219603 -0.003121  0.020495  0.040568
  0Cl  3px        0.244870  0.060077 -0.013927  0.047108  0.011055 -0.002406
  0Cl  3py       -0.060665  0.211826 -0.114946 -0.011671  0.039142 -0.020562
  0Cl  4pz       -0.041170  0.283323  0.542517 -0.059775  0.432886  0.856869
  0Cl  4px        0.621353  0.148418 -0.034405  0.902146  0.233504 -0.050821
  0Cl  4py       -0.153936  0.523303 -0.283968 -0.223501  0.826748 -0.434303
  0Cl  5pz       -0.017787  0.146529  0.280580  0.081090 -0.565687 -1.119740
  0Cl  5px        0.268442  0.076759 -0.017794 -1.223849 -0.305138  0.066412
  0Cl  5py       -0.066505  0.270643 -0.146863  0.303201 -1.080378  0.567540
  0Cl  1dz2      -0.000000  0.000000 -0.000000 -0.000000  0.000000 -0.000000
  0Cl  1dxz      -0.000000  0.000000  0.000000 -0.000000  0.000000 -0.000000
  0Cl  1dyz       0.000000  0.000000 -0.000000 -0.000000  0.000000 -0.000000
  0Cl  1dx2y2    -0.000000  0.000000 -0.000000 -0.000000  0.000000 -0.000000
  0Cl  1dxy       0.000000  0.000000 -0.000000  0.000000  0.000000 -0.000000
                     12        13        14        15        16        17
                   0.74459   1.04073   1.05644   1.05644   1.11130   1.11130
                   0.00000   0.00000   0.00000   0.00000   0.00000   0.00000
                  --------  --------  --------  --------  --------  --------
  0Cl  1s        -0.034189  0.003113  0.000000  0.000000 -0.000000  0.000000
  0Cl  2s        -0.093752  0.009019  0.000000  0.000000 -0.000000 -0.000000
  0Cl  3s         0.140974 -0.018050 -0.000000 -0.000000  0.000000  0.000000
  0Cl  4s         0.653596 -0.044075 -0.000000 -0.000000  0.000000  0.000000
  0Cl  5s        -2.121061  0.133183  0.000000  0.000000 -0.000000 -0.000000
  0Cl  6s         1.735458 -0.073764 -0.000000 -0.000000  0.000000  0.000000
  0Cl  1pz       -0.000000 -0.000000  0.000000  0.000000 -0.000000  0.000000
  0Cl  1px       -0.000000  0.000000  0.000000  0.000000 -0.000000  0.000000
  0Cl  1py       -0.000000  0.000000  0.000000  0.000000 -0.000000  0.000000
  0Cl  2pz       -0.000000 -0.000000  0.000000  0.000000  0.000000  0.000000
  0Cl  2px       -0.000000  0.000000  0.000000  0.000000 -0.000000  0.000000
  0Cl  2py       -0.000000  0.000000  0.000000  0.000000 -0.000000  0.000000
  0Cl  3pz        0.000000  0.000000 -0.000000 -0.000000 -0.000000 -0.000000
  0Cl  3px        0.000000 -0.000000 -0.000000 -0.000000  0.000000  0.000000
  0Cl  3py        0.000000 -0.000000 -0.000000 -0.000000  0.000000 -0.000000
  0Cl  4pz       -0.000000 -0.000000  0.000000 -0.000000  0.000000  0.000000
  0Cl  4px        0.000000  0.000000 -0.000000  0.000000  0.000000  0.000000
  0Cl  4py        0.000000  0.000000 -0.000000 -0.000000 -0.000000  0.000000
  0Cl  5pz        0.000000  0.000000 -0.000000  0.000000 -0.000000  0.000000
  0Cl  5px       -0.000000 -0.000000  0.000000 -0.000000 -0.000000 -0.000000
  0Cl  5py       -0.000000 -0.000000  0.000000  0.000000  0.000000 -0.000000
  0Cl  1dz2       0.026365  0.492850  0.062899 -0.091382  0.857558  0.091808
  0Cl  1dxz       0.005749  0.107469 -0.558525  0.784220  0.087362 -0.231997
  0Cl  1dyz      -0.001424 -0.026625  0.083905 -0.231775  0.087797 -0.964790
  0Cl  1dx2y2    -0.040721 -0.761211  0.351638  0.310799  0.444661  0.017471
  0Cl  1dxy       0.021496  0.401834  0.743912  0.475745 -0.227005 -0.081385
                     18        19        20        21        22        23
                   2.37135   2.42604   2.42604   9.92366  26.12995  26.17481
                   0.00000   0.00000   0.00000   0.00000   0.00000   0.00000
                  --------  --------  --------  --------  --------  --------
  0Cl  1s        -0.000000  0.000000  0.000000  0.115947 -0.000000 -0.000000
  0Cl  2s        -0.000000  0.000000  0.000000  0.481574 -0.000000 -0.000000
  0Cl  3s         0.000000  0.000000  0.000000 -2.618820  0.000000 -0.000000
  0Cl  4s         0.000000 -0.000000 -0.000000  2.997798 -0.000000  0.000000
  0Cl  5s        -0.000000  0.000000  0.000000 -1.463622  0.000000  0.000000
  0Cl  6s         0.000000 -0.000000 -0.000000  0.575029  0.000000 -0.000000
  0Cl  1pz        0.050322 -0.776073 -0.103551 -0.000000 -0.215319 -3.323572
  0Cl  1px       -0.759475 -0.073400  0.180547  0.000000  3.249693 -0.305195
  0Cl  1py        0.188155 -0.088717  0.756458  0.000000 -0.805091 -0.343018
  0Cl  2pz        0.016671 -0.256950 -0.034285 -0.000000 -0.218231 -3.368291
  0Cl  2px       -0.251613 -0.024302  0.059777  0.000000  3.293631 -0.309301
  0Cl  2py        0.062335 -0.029373  0.250456  0.000000 -0.815976 -0.347633
  0Cl  3pz       -0.122351  1.886262  0.251682  0.000000  0.148355  2.289849
  0Cl  3px        1.846568  0.178401 -0.438822 -0.000000 -2.239040  0.210271
  0Cl  3py       -0.457476  0.215629 -1.838586 -0.000000  0.554708  0.236330
  0Cl  4pz        0.116290 -1.786349 -0.238351  0.000000 -0.068913 -1.063136
  0Cl  4px       -1.755098 -0.168952  0.415578  0.000000  1.040061 -0.097625
  0Cl  4py        0.434814 -0.204207  1.741198  0.000000 -0.257669 -0.109724
  0Cl  5pz       -0.037496  0.571376  0.076238 -0.000000  0.018303  0.282208
  0Cl  5px        0.565912  0.054040 -0.132926 -0.000000 -0.276239  0.025914
  0Cl  5py       -0.140201  0.065317 -0.556935  0.000000  0.068437  0.029126
  0Cl  1dz2       0.000000 -0.000000  0.000000 -0.000746 -0.000000  0.000000
  0Cl  1dxz       0.000000 -0.000000  0.000000 -0.000163  0.000000  0.000000
  0Cl  1dyz       0.000000 -0.000000  0.000000  0.000040  0.000000 -0.000000
  0Cl  1dx2y2     0.000000  0.000000  0.000000  0.001152  0.000000  0.000000
  0Cl  1dxy       0.000000 -0.000000 -0.000000 -0.000608 -0.000000  0.000000
                     24        25
                  26.17481 218.71556
                   0.00000   0.00000
                  --------  --------
  0Cl  1s        -0.000000  1.541315
  0Cl  2s        -0.000000 -1.911226
  0Cl  3s         0.000000  1.419525
  0Cl  4s        -0.000000 -0.929937
  0Cl  5s         0.000000  0.330585
  0Cl  6s        -0.000000 -0.126744
  0Cl  1pz       -0.405506  0.000000
  0Cl  1px        0.775569 -0.000000
  0Cl  1py        3.238981  0.000000
  0Cl  2pz       -0.410962  0.000000
  0Cl  2px        0.786004 -0.000000
  0Cl  2py        3.282562  0.000000
  0Cl  3pz        0.279382  0.000000
  0Cl  3px       -0.534345  0.000000
  0Cl  3py       -2.231568 -0.000000
  0Cl  4pz       -0.129712 -0.000000
  0Cl  4px        0.248087 -0.000000
  0Cl  4py        1.036077  0.000000
  0Cl  5pz        0.034432  0.000000
  0Cl  5px       -0.065854  0.000000
  0Cl  5py       -0.275025 -0.000000
  0Cl  1dz2       0.000000  0.000004
  0Cl  1dxz       0.000000  0.000001
  0Cl  1dyz      -0.000000 -0.000000
  0Cl  1dx2y2     0.000000 -0.000006
  0Cl  1dxy       0.000000  0.000003

                      0         1         2         3         4         5
                 -104.88086 -10.60412  -8.07083  -8.07083  -8.05310  -1.01615
                   1.00000   1.00000   1.00000   1.00000   1.00000   1.00000
                  --------  --------  --------  --------  --------  --------
  0Cl  1s        -0.411758 -0.121949  0.000000 -0.000000  0.000000 -0.036892
  0Cl  2s        -0.654678 -0.331483  0.000000 -0.000000  0.000000 -0.106975
  0Cl  3s        -0.011971  0.511349 -0.000000  0.000000 -0.000000  0.213463
  0Cl  4s         0.000838  0.607477  0.000000  0.000000  0.000000  0.420824
  0Cl  5s        -0.000178  0.039280 -0.000000 -0.000000 -0.000000 -0.648002
  0Cl  6s         0.000076 -0.007296  0.000000 -0.000000  0.000000 -0.568578
  0Cl  1pz        0.000000  0.000000  0.950432 -0.779318  0.078884 -0.000000
  0Cl  1px        0.000000 -0.000000 -0.128460 -0.277676 -1.190550  0.000000
  0Cl  1py        0.000000 -0.000000 -0.772711 -0.912395  0.294951  0.000000
  0Cl  2pz        0.000000  0.000000  0.252629 -0.207146  0.020990 -0.000000
  0Cl  2px        0.000000 -0.000000 -0.034145 -0.073808 -0.316790  0.000000
  0Cl  2py        0.000000  0.000000 -0.205390 -0.242519  0.078483 -0.000000
  0Cl  3pz       -0.000000  0.000000  0.037628 -0.030853  0.003484  0.000000
  0Cl  3px       -0.000000 -0.000000 -0.005086 -0.010993 -0.052579 -0.000000
  0Cl  3py       -0.000000 -0.000000 -0.030592 -0.036122  0.013026 -0.000000
  0Cl  4pz        0.000000 -0.000000 -0.001660  0.001362 -0.000295  0.000000
  0Cl  4px        0.000000 -0.000000  0.000224  0.000485  0.004452 -0.000000
  0Cl  4py        0.000000  0.000000  0.001350  0.001594 -0.001103 -0.000000
  0Cl  5pz       -0.000000  0.000000  0.000508 -0.000416  0.000087  0.000000
  0Cl  5px       -0.000000  0.000000 -0.000069 -0.000148 -0.001309 -0.000000
  0Cl  5py       -0.000000 -0.000000 -0.000413 -0.000488  0.000324  0.000000
  0Cl  1dz2       0.000009  0.000140 -0.000000 -0.000000 -0.000000 -0.017652
  0Cl  1dxz       0.000002  0.000031  0.000000  0.000000  0.000000 -0.003849
  0Cl  1dyz      -0.000001 -0.000008 -0.000000 -0.000000 -0.000000  0.000954
  0Cl  1dx2y2    -0.000014 -0.000217  0.000000 -0.000000 -0.000000  0.027263
  0Cl  1dxy       0.000008  0.000114  0.000000 -0.000000  0.000000 -0.014392
                      6         7         8         9        10        11
                  -0.48012  -0.48012  -0.04750   0.41289   0.41289   0.44884
                   1.00000   1.00000   0.00000   0.00000   0.00000   0.00000
                  --------  --------  --------  --------  --------  --------
  0Cl  1s         0.000000  0.000000  0.000000  0.000000  0.000000  0.000000
  0Cl  2s         0.000000  0.000000  0.000000  0.000000  0.000000  0.000000
  0Cl  3s        -0.000000 -0.000000 -0.000000 -0.000000 -0.000000 -0.000000
  0Cl  4s         0.000000 -0.000000  0.000000 -0.000000  0.000000  0.000000
  0Cl  5s        -0.000000  0.000000 -0.000000  0.000000 -0.000000 -0.000000
  0Cl  6s        -0.000000 -0.000000  0.000000 -0.000000  0.000000  0.000000
  0Cl  1pz       -0.040293 -0.335404  0.018350  0.099621  0.159174 -0.015023
  0Cl  1px       -0.083338 -0.011229 -0.276948 -0.032137  0.033942  0.226738
  0Cl  1py       -0.325612  0.044379  0.068612 -0.156363  0.094436 -0.056173
  0Cl  2pz       -0.009596 -0.079877  0.004458  0.015816  0.025271 -0.002575
  0Cl  2px       -0.019847 -0.002674 -0.067286 -0.005102  0.005389  0.038868
  0Cl  2py       -0.077545  0.010569  0.016670 -0.024824  0.014993 -0.009629
  0Cl  3pz        0.029367  0.244458 -0.012706 -0.023858 -0.038121  0.003455
  0Cl  3px        0.060741  0.008184  0.191768  0.007697 -0.008129 -0.052141
  0Cl  3py        0.237321 -0.032345 -0.047509  0.037448 -0.022617  0.012917
  0Cl  4pz        0.071603  0.596036 -0.028851 -0.515268 -0.823294  0.070544
  0Cl  4px        0.148097  0.019954  0.435429  0.166223 -0.175560 -1.064681
  0Cl  4py        0.578633 -0.078864 -0.107875  0.808755 -0.488448  0.263768
  0Cl  5pz        0.039660  0.330135 -0.034908  0.663898  1.060775 -0.075955
  0Cl  5px        0.082029  0.011052  0.526841 -0.214171  0.226201  1.146352
  0Cl  5py        0.320496 -0.043682 -0.130522 -1.042042  0.629342 -0.284002
  0Cl  1dz2       0.000000  0.000000 -0.000000  0.000000 -0.000000 -0.000000
  0Cl  1dxz      -0.000000  0.000000  0.000000 -0.000000  0.000000  0.000000
  0Cl  1dyz       0.000000 -0.000000  0.000000  0.000000 -0.000000  0.000000
  0Cl  1dx2y2    -0.000000 -0.000000  0.000000 -0.000000  0.000000 -0.000000
  0Cl  1dxy      -0.000000 -0.000000  0.000000 -0.000000  0.000000  0.000000
                     12        13        14        15        16        17
                   0.77364   1.12183   1.12183   1.15467   1.15467   1.16769
                   0.00000   0.00000   0.00000   0.00000   0.00000   0.00000
                  --------  --------  --------  --------  --------  --------
  0Cl  1s        -0.034528 -0.000000 -0.000000  0.000000  0.000000 -0.001476
  0Cl  2s        -0.094674  0.000000 -0.000000  0.000000  0.000000 -0.004281
  0Cl  3s         0.142292 -0.000000  0.000000 -0.000000 -0.000000  0.008890
  0Cl  4s         0.659374  0.000000  0.000000 -0.000000 -0.000000  0.017016
  0Cl  5s        -2.130744 -0.000000 -0.000000  0.000000  0.000000 -0.032463
  0Cl  6s         1.732816  0.000000  0.000000 -0.000000 -0.000000 -0.012615
  0Cl  1pz        0.000000  0.000000  0.000000 -0.000000 -0.000000  0.000000
  0Cl  1px       -0.000000  0.000000 -0.000000  0.000000  0.000000 -0.000000
  0Cl  1py       -0.000000  0.000000 -0.000000 -0.000000  0.000000  0.000000
  0Cl  2pz        0.000000  0.000000  0.000000 -0.000000 -0.000000  0.000000
  0Cl  2px       -0.000000  0.000000 -0.000000  0.000000  0.000000 -0.000000
  0Cl  2py       -0.000000  0.000000 -0.000000 -0.000000  0.000000  0.000000
  0Cl  3pz       -0.000000 -0.000000 -0.000000  0.000000  0.000000 -0.000000
  0Cl  3px        0.000000 -0.000000  0.000000 -0.000000 -0.000000  0.000000
  0Cl  3py       -0.000000 -0.000000  0.000000  0.000000 -0.000000 -0.000000
  0Cl  4pz       -0.000000 -0.000000  0.000000  0.000000 -0.000000 -0.000000
  0Cl  4px        0.000000 -0.000000 -0.000000  0.000000  0.000000  0.000000
  0Cl  4py        0.000000  0.000000 -0.000000  0.000000  0.000000 -0.000000
  0Cl  5pz        0.000000  0.000000 -0.000000 -0.000000 -0.000000  0.000000
  0Cl  5px       -0.000000  0.000000  0.000000 -0.000000 -0.000000 -0.000000
  0Cl  5py       -0.000000  0.000000 -0.000000 -0.000000 -0.000000  0.000000
  0Cl  1dz2      -0.002246  0.494597  0.706546  0.078629 -0.078258  0.493500
  0Cl  1dxz      -0.000490  0.232248 -0.086690 -0.693196  0.668154  0.107611
  0Cl  1dyz       0.000121  0.784712 -0.568116  0.125090 -0.212396 -0.026660
  0Cl  1dx2y2     0.003469  0.279165  0.346548  0.288496  0.370155 -0.762215
  0Cl  1dxy      -0.001831 -0.087912 -0.224558  0.643754  0.604416  0.402364
                     18        19        20        21        22        23
                   2.43649   2.43649   2.45163   9.94184  26.15395  26.17993
                   0.00000   0.00000   0.00000   0.00000   0.00000   0.00000
                  --------  --------  --------  --------  --------  --------
  0Cl  1s         0.000000 -0.000000  0.000000 -0.115945  0.000000  0.000000
  0Cl  2s         0.000000 -0.000000  0.000000 -0.481589  0.000000  0.000000
  0Cl  3s        -0.000000  0.000000 -0.000000  2.618837 -0.000000 -0.000000
  0Cl  4s         0.000000  0.000000  0.000000 -2.997823  0.000000  0.000000
  0Cl  5s        -0.000000 -0.000000 -0.000000  1.463674  0.000000 -0.000000
  0Cl  6s         0.000000  0.000000  0.000000 -0.573636 -0.000000  0.000000
  0Cl  1pz       -0.545119 -0.562841 -0.051319 -0.000000  0.215309 -3.346824
  0Cl  1px        0.101598 -0.166494  0.774535  0.000000 -3.249533 -0.232374
  0Cl  1py        0.555884 -0.521511 -0.191886  0.000000  0.805051 -0.042861
  0Cl  2pz       -0.180444 -0.186311 -0.016937 -0.000000  0.218226 -3.391839
  0Cl  2px        0.033631 -0.055113  0.255623 -0.000000 -3.293567 -0.235499
  0Cl  2py        0.184008 -0.172630 -0.063329 -0.000000  0.815961 -0.043438
  0Cl  3pz        1.324047  1.367093  0.122780  0.000000 -0.148330  2.305873
  0Cl  3px       -0.246773  0.404400 -1.853055 -0.000000  2.238656  0.160099
  0Cl  3py       -1.350195  1.266706  0.459083 -0.000000 -0.554613  0.029530
  0Cl  4pz       -1.252412 -1.293128 -0.113978 -0.000000  0.068850 -1.070403
  0Cl  4px        0.233422 -0.382520  1.720207 -0.000000 -1.039120 -0.074319
  0Cl  4py        1.277145 -1.198173 -0.426170  0.000000  0.257435 -0.013708
  0Cl  5pz        0.399515  0.412503  0.036208  0.000000 -0.018281  0.284115
  0Cl  5px       -0.074461  0.122023 -0.546460  0.000000  0.275910  0.019726
  0Cl  5py       -0.407405  0.382213  0.135382 -0.000000 -0.068355  0.003639
  0Cl  1dz2       0.000000 -0.000000  0.000000 -0.000143  0.000000 -0.000000
  0Cl  1dxz      -0.000000  0.000000  0.000000 -0.000031 -0.000000  0.000000
  0Cl  1dyz      -0.000000  0.000000 -0.000000  0.000008  0.000000 -0.000000
  0Cl  1dx2y2    -0.000000  0.000000 -0.000000  0.000221 -0.000000 -0.000000
  0Cl  1dxy      -0.000000  0.000000 -0.000000 -0.000117  0.000000 -0.000000
                     24        25
                  26.17993 218.72160
                   0.00000   0.00000
                  --------  --------
  0Cl  1s         0.000000  1.541309
  0Cl  2s         0.000000 -1.911233
  0Cl  3s        -0.000000  1.419518
  0Cl  4s         0.000000 -0.929942
  0Cl  5s        -0.000000  0.330579
  0Cl  6s         0.000000 -0.126733
  0Cl  1pz        0.097282  0.000000
  0Cl  1px       -0.800413 -0.000000
  0Cl  1py       -3.256830  0.000000
  0Cl  2pz        0.098591  0.000000
  0Cl  2px       -0.811179 -0.000000
  0Cl  2py       -3.300634  0.000000
  0Cl  3pz       -0.067025  0.000000
  0Cl  3px        0.551464  0.000000
  0Cl  3py        2.243869 -0.000000
  0Cl  4pz        0.031113 -0.000000
  0Cl  4px       -0.255993 -0.000000
  0Cl  4py       -1.041621  0.000000
  0Cl  5pz       -0.008258  0.000000
  0Cl  5px        0.067948  0.000000
  0Cl  5py        0.276475 -0.000000
  0Cl  1dz2       0.000000  0.000002
  0Cl  1dxz       0.000000  0.000001
  0Cl  1dyz       0.000000 -0.000000
  0Cl  1dx2y2    -0.000000 -0.000004
  0Cl  1dxy       0.000000  0.000002

MULLIKEN ATOMIC CHARGES AND SPIN POPULATIONS
--------------------------------------------
   0 Cl:   -0.000000    1.000000
Sum of atomic charges         :   -0.0000000

LOEWDIN ATOMIC CHARGES AND SPIN POPULATIONS
-------------------------------------------
   0 Cl:   -0.000000    1.000000

MP2 TOTAL ENERGY:     -459.633760056 Eh
FINAL SINGLE POINT ENERGY      -459.633760055603

DIPOLE MOMENT
-------------
                                X             Y             Z
Electronic contribution:      0.00000       0.00000       0.00000
Nuclear contribution   :      0.00000       0.00000       0.00000
                        -----------------------------------------
Total Dipole Moment    :      0.00000       0.00000       0.00000
                        -----------------------------------------
Magnitude (a.u.)       :      0.00000
Magnitude (Debye)      :      0.00000

VIBRATIONAL FREQUENCIES
-----------------------

Scaling factor for frequencies =  1.000000000  (already applied!)

   0:         0.00 cm**-1
   1:         0.00 cm**-1
   2:         0.00 cm**-1

IR SPECTRUM
-----------

 Mode    freq (cm**-1)   T**2         TX         TY         TZ
-------------------------------------------------------------------

--------------------------
THERMOCHEMISTRY AT 298.15K
--------------------------

Temperature         ... 298.15 K
Pressure            ... 1.00 atm
Total Mass          ... 35.45 AMU
The molecule is recognized as being linear

Throughout the following assumptions are being made:
  (1) The electronic state is orbitally nondegenerate
      but the spin degeneracy is treated
  (2) There are no thermally accessible electronically excited states
  (3) Hindered rotations indicated by low frequency modes are not
      treated as such but are treated as vibrations and this may
      cause some error
  (4) All equations used are the standard statistical mechanics
      equations for an ideal gas
  (5) All vibrations are strictly harmonic

freq.       0.00  E(vib)   ...       0.59
freq.       0.00  E(vib)   ...       0.59
freq.       0.00  E(vib)   ...       0.59

------------
INNER ENERGY
------------

The inner energy is: U= E(el) + E(ZPE) + E(vib) + E(rot) + E(trans)
    E(el)   - is the total energy from the electronic structure calculation
              = E(kin-el) + E(nuc-el) + E(el-el) + E(nuc-nuc)
    E(ZPE)  - the the zero temperature vibrational energy from the frequency calculation
    E(vib)  - the the finite temperature correction to E(ZPE) due to population
              of excited vibrational states
    E(rot)  - is the rotational thermal energy
    E(trans)- is the translational thermal energy

Summary of contributions to the inner energy U:
Electronic energy                ...   -459.63376006 Eh
Zero point energy                ...      0.00000003 Eh       0.00 kcal/mol
Thermal vibrational correction   ...      0.00283260 Eh       1.78 kcal/mol
Thermal rotational correction    ...      0.00000000 Eh       0.00 kcal/mol
Thermal translational correction ...      0.00141627 Eh       0.89 kcal/mol
-----------------------------------------------------------------------
Total thermal energy                   -459.62951116 Eh

Summary of corrections to the electronic energy:
(perhaps to be used in another calculation)
Total thermal correction                  0.00424887 Eh       2.67 kcal/mol
Non-thermal (ZPE) correction              0.00000003 Eh       0.00 kcal/mol
-----------------------------------------------------------------------
Total correction                          0.00424890 Eh       2.67 kcal/mol

--------
ENTHALPY
--------

The enthalpy is H = U + kB*T
                kB is Boltzmann's constant
Total free energy                 ...   -459.62951116 Eh
Thermal Enthalpy correction       ...      0.00094421 Eh       0.59 kcal/mol
-----------------------------------------------------------------------
Total Enthalpy                    ...   -459.62856695 Eh

Note: Rotational entropy computed according to Herzberg
Infrared and Raman Spectra, Chapter V,1, Van Nostrand Reinhold, 1945
Point Group:  Kh, Symmetry Number:   1
Rotational constants in cm-1:     0.000000     0.000000     0.000000

Vibrational entropy computed according to the QRRHO of S. Grimme
Chem.Eur.J. 2012 18 9955

-------
ENTROPY
-------

The entropy contributions are T*S = T*(S(el)+S(vib)+S(rot)+S(trans))
     S(el)   - electronic entropy
     S(vib)  - vibrational entropy
     S(rot)  - rotational entropy
     S(trans)- translational entropy
The entropies will be listed as mutliplied by the temperature to get
units of energy

Electronic entropy                ...      0.00065446 Eh      0.41 kcal/mol
Vibrational entropy               ...            -inf Eh      -inf kcal/mol
Rotational entropy                ...      0.00000000 Eh      0.00 kcal/mol
Translational entropy             ...      0.01740262 Eh     10.92 kcal/mol
-----------------------------------------------------------------------
Final entropy term                ...            -inf Eh      -inf kcal/mol

In case the symmetry of your molecule has not been determined correctly
or in case you have a reason to use a different symmetry number we print
out the resulting rotational entropy values for sn=1,12 :
 --------------------------------------------------------
|  sn= 1 | S(rot)=             -inf Eh      -inf kcal/mol|
|  sn= 2 | S(rot)=             -inf Eh      -inf kcal/mol|
|  sn= 3 | S(rot)=             -inf Eh      -inf kcal/mol|
|  sn= 4 | S(rot)=             -inf Eh      -inf kcal/mol|
|  sn= 5 | S(rot)=             -inf Eh      -inf kcal/mol|
|  sn= 6 | S(rot)=             -inf Eh      -inf kcal/mol|
|  sn= 7 | S(rot)=             -inf Eh      -inf kcal/mol|
|  sn= 8 | S(rot)=             -inf Eh      -inf kcal/mol|
|  sn= 9 | S(rot)=             -inf Eh      -inf kcal/mol|
|  sn=10 | S(rot)=             -inf Eh      -inf kcal/mol|
|  sn=11 | S(rot)=             -inf Eh      -inf kcal/mol|
|  sn=12 | S(rot)=             -inf Eh      -inf kcal/mol|
 --------------------------------------------------------

-------------------
GIBBS FREE ENERGY
-------------------

The Gibbs free energy is G = H - T*S

Total enthalpy                    ...   -459.62856695 Eh
Total entropy correction          ...             inf Eh       inf kcal/mol
-----------------------------------------------------------------------
Final Gibbs free energy         ...             inf Eh

For completeness - the Gibbs free energy minus the electronic energy
G-E(el)                           ...             inf Eh       inf kcal/mol

                             ****ORCA TERMINATED NORMALLY****
TOTAL RUN TIME: 0 days 0 hours 0 minutes 7 seconds 834 msec
