                         Program Version 4.2.1 -  RELEASE  -
|  1> ! UHF MP2 6-311G(d,p) Opt Freq NoFrozenCore TightOpt TightSCF Grid4 FinalGrid5 PrintBasis PrintMOs NBO
|  2> %maxcore 3000
|  3>
|  4> *xyz 0 1
|  5> Cl       0.000000000      0.000000000      0.034379000
|  6> H        0.000000000      0.000000000     -1.236571000
|  7> *
|  8>
|  9> %pal
| 10>  nprocs 12
| 11> end
| 12>
| 13>                          ****END OF INPUT****
 Total Charge           Charge          ....    0
 Multiplicity           Mult            ....    1
 Number of Electrons    NEL             ....   18
MP2 TOTAL ENERGY:     -460.292966935 Eh
FINAL SINGLE POINT ENERGY      -460.292966935005
MP2 TOTAL ENERGY:     -460.292971368 Eh
FINAL SINGLE POINT ENERGY      -460.292971367758
MP2 TOTAL ENERGY:     -460.292970292 Eh
FINAL SINGLE POINT ENERGY      -460.292970291871
                    ***********************HURRAY********************

CARTESIAN COORDINATES (ANGSTROEM)
---------------------------------
  Cl     0.000000    0.000000    0.035678
  H      0.000000    0.000000   -1.237870

 Multiplicity           Mult            ....    1
 Number of Electrons    NEL             ....   18
 Basis Dimension        Dim             ....   32

ORBITAL ENERGIES
----------------
                 SPIN UP ORBITALS
  NO   OCC          E(Eh)            E(eV)
   0   1.0000    -104.850629     -2853.1307
   1   1.0000     -10.577338      -287.8240
   2   1.0000      -8.045870      -218.9393
   3   1.0000      -8.042613      -218.8506
   4   1.0000      -8.042613      -218.8506
   5   1.0000      -1.121362       -30.5138
   6   1.0000      -0.629296       -17.1240
   7   1.0000      -0.478311       -13.0155
   8   1.0000      -0.478311       -13.0155
   9   0.0000       0.123132         3.3506
  10   0.0000       0.314858         8.5677
  11   0.0000       0.417301        11.3553
  12   0.0000       0.417301        11.3553
  13   0.0000       0.458619        12.4797

                 SPIN DOWN ORBITALS
  NO   OCC          E(Eh)            E(eV)
   0   1.0000    -104.850629     -2853.1307
   1   1.0000     -10.577338      -287.8240
   2   1.0000      -8.045870      -218.9393
   3   1.0000      -8.042613      -218.8506
   4   1.0000      -8.042613      -218.8506
   5   1.0000      -1.121362       -30.5138
   6   1.0000      -0.629296       -17.1240
   7   1.0000      -0.478311       -13.0155
   8   1.0000      -0.478311       -13.0155
   9   0.0000       0.123132         3.3506
  10   0.0000       0.314858         8.5677
  11   0.0000       0.417301        11.3553
  12   0.0000       0.417301        11.3553
  13   0.0000       0.458619        12.4797

------------------
MOLECULAR ORBITALS
------------------
                      0         1         2         3         4         5
                 -104.85063 -10.57734  -8.04587  -8.04261  -8.04261  -1.12136
                   1.00000   1.00000   1.00000   1.00000   1.00000   1.00000
                  --------  --------  --------  --------  --------  --------
  0Cl  1s        -0.411732  0.121940  0.000666  0.000000 -0.000000 -0.034691
  0Cl  2s        -0.654663  0.331491  0.001855  0.000000 -0.000000 -0.100382
  0Cl  3s        -0.012083 -0.511845 -0.003511 -0.000000  0.000000  0.198351
  0Cl  4s         0.000905 -0.605658 -0.002684 -0.000000  0.000000  0.396257
  0Cl  5s        -0.000206 -0.042327  0.000616  0.000000  0.000000 -0.600406
  0Cl  6s         0.000111  0.009554  0.000214  0.000000 -0.000000 -0.507184
  0Cl  1pz        0.000164  0.005728 -1.230125 -0.000000  0.000000 -0.043948
  0Cl  1px       -0.000000 -0.000000 -0.000000  0.676635 -1.028782  0.000000
  0Cl  1py       -0.000000 -0.000000 -0.000000 -1.028782 -0.676635  0.000000
  0Cl  2pz        0.000106  0.001558 -0.327112 -0.000000  0.000000 -0.011424
  0Cl  2px       -0.000000 -0.000000 -0.000000  0.179856 -0.273459  0.000000
  0Cl  2py       -0.000000 -0.000000 -0.000000 -0.273459 -0.179856  0.000000
  0Cl  3pz       -0.000107  0.000402 -0.051590 -0.000000  0.000000  0.029557
  0Cl  3px        0.000000  0.000000 -0.000000  0.027042 -0.041115  0.000000
  0Cl  3py        0.000000  0.000000 -0.000000 -0.041115 -0.027042 -0.000000
  0Cl  4pz        0.000087  0.001954  0.002891 -0.000000 -0.000000  0.044296
  0Cl  4px       -0.000000 -0.000000  0.000000 -0.001194  0.001815 -0.000000
  0Cl  4py       -0.000000 -0.000000  0.000000  0.001815  0.001194  0.000000
  0Cl  5pz       -0.000042 -0.002036 -0.001039 -0.000000 -0.000000  0.014497
  0Cl  5px        0.000000  0.000000 -0.000000  0.000374 -0.000568  0.000000
  0Cl  5py        0.000000  0.000000 -0.000000 -0.000568 -0.000374 -0.000000
  0Cl  1dz2      -0.000018 -0.000952  0.000526  0.000000 -0.000000 -0.017909
  0Cl  1dxz       0.000000  0.000000  0.000000 -0.000170  0.000259 -0.000000
  0Cl  1dyz       0.000000  0.000000  0.000000  0.000259  0.000170 -0.000000
  0Cl  1dx2y2     0.000000  0.000000 -0.000000  0.000000 -0.000000 -0.000000
  0Cl  1dxy       0.000000  0.000000  0.000000  0.000000  0.000000 -0.000000
  1H   1s         0.000003 -0.000268  0.000413 -0.000000 -0.000000 -0.088687
  1H   2s         0.000034  0.001740  0.000195 -0.000000 -0.000000 -0.116786
  1H   3s        -0.000049 -0.003540 -0.000416  0.000000  0.000000  0.009675
  1H   1pz        0.000024  0.001382 -0.000039  0.000000 -0.000000 -0.030037
  1H   1px        0.000000  0.000000 -0.000000  0.000015 -0.000023 -0.000000
  1H   1py        0.000000 -0.000000  0.000000 -0.000023 -0.000015  0.000000
                      6         7         8         9        10        11
                  -0.62930  -0.47831  -0.47831   0.12313   0.31486   0.41730
                   1.00000   1.00000   1.00000   0.00000   0.00000   0.00000
                  --------  --------  --------  --------  --------  --------
  0Cl  1s        -0.010593  0.000000  0.000000  0.010623 -0.003135 -0.000000
  0Cl  2s        -0.030940  0.000000  0.000000  0.031796 -0.009389 -0.000000
  0Cl  3s         0.063668 -0.000000 -0.000000 -0.071745  0.021313  0.000000
  0Cl  4s         0.121028 -0.000000 -0.000000 -0.102246  0.030307 -0.000000
  0Cl  5s        -0.182819  0.000000  0.000000  0.072367  0.019509  0.000000
  0Cl  6s        -0.289664  0.000000  0.000000  1.023457 -0.278002 -0.000000
  0Cl  1pz        0.278751 -0.000000 -0.000000  0.131394 -0.004770 -0.000000
  0Cl  1px       -0.000000  0.215957  0.256197 -0.000000 -0.000000 -0.127301
  0Cl  1py       -0.000000  0.256197 -0.215957 -0.000000 -0.000000  0.139634
  0Cl  2pz        0.068209 -0.000000 -0.000000  0.031808 -0.003723 -0.000000
  0Cl  2px       -0.000000  0.051530  0.061132 -0.000000  0.000000 -0.020253
  0Cl  2py       -0.000000  0.061132 -0.051530  0.000000 -0.000000  0.022215
  0Cl  3pz       -0.200679  0.000000  0.000000 -0.100939  0.012758 -0.000000
  0Cl  3px       -0.000000 -0.155513 -0.184490  0.000000 -0.000000  0.029136
  0Cl  3py        0.000000 -0.184490  0.155513 -0.000000  0.000000 -0.031959
  0Cl  4pz       -0.426286  0.000000  0.000000 -0.229171 -0.060046  0.000000
  0Cl  4px       -0.000000 -0.384718 -0.456404  0.000000 -0.000000  0.659570
  0Cl  4py        0.000000 -0.456404  0.384718  0.000000  0.000000 -0.723469
  0Cl  5pz       -0.159876  0.000000  0.000000 -0.827491  0.975787 -0.000000
  0Cl  5px       -0.000000 -0.216912 -0.257329 -0.000000  0.000000 -0.844883
  0Cl  5py       -0.000000 -0.257329  0.216912 -0.000000 -0.000000  0.926735
  0Cl  1dz2       0.055178  0.000000  0.000000 -0.043952  0.135893  0.000000
  0Cl  1dxz      -0.000000  0.008589  0.010189 -0.000000 -0.000000 -0.006901
  0Cl  1dyz      -0.000000  0.010189 -0.008589 -0.000000  0.000000  0.007570
  0Cl  1dx2y2    -0.000000 -0.000000  0.000000  0.000000 -0.000000 -0.000000
  0Cl  1dxy      -0.000000 -0.000000  0.000000  0.000000 -0.000000  0.000000
  1H   1s         0.152935 -0.000000 -0.000000 -0.084730  0.089998  0.000000
  1H   2s         0.317450 -0.000000 -0.000000 -0.051632  1.220380  0.000000
  1H   3s         0.039503  0.000000 -0.000000 -1.718866 -0.638517 -0.000000
  1H   1pz        0.035433 -0.000000 -0.000000  0.011496  0.043167  0.000000
  1H   1px       -0.000000 -0.015838 -0.018789 -0.000000  0.000000  0.006503
  1H   1py       -0.000000 -0.018789  0.015838  0.000000 -0.000000 -0.007133
                     12        13        14        15        16        17
                   0.41730   0.45862   0.94369   0.99218   0.99218   1.13625
                   0.00000   0.00000   0.00000   0.00000   0.00000   0.00000
                  --------  --------  --------  --------  --------  --------
  0Cl  1s        -0.000000  0.004447 -0.032337 -0.000000  0.000000  0.000000
  0Cl  2s        -0.000000  0.012584 -0.088614 -0.000000  0.000000  0.000000
  0Cl  3s         0.000000 -0.022507  0.131950  0.000000 -0.000000 -0.000000
  0Cl  4s         0.000000 -0.070917  0.635259  0.000000 -0.000000 -0.000000
  0Cl  5s        -0.000000  0.224572 -2.270863 -0.000000  0.000000  0.000000
  0Cl  6s         0.000000  0.032334  2.634371  0.000000 -0.000000 -0.000000
  0Cl  1pz        0.000000 -0.220974 -0.086027  0.000000  0.000000  0.000000
  0Cl  1px        0.139634  0.000000  0.000000  0.002764 -0.021527 -0.000000
  0Cl  1py        0.127301  0.000000  0.000000 -0.021527 -0.002764 -0.000000
  0Cl  2pz        0.000000 -0.037108 -0.025782  0.000000  0.000000  0.000000
  0Cl  2px        0.022215 -0.000000  0.000000  0.000478 -0.003727 -0.000000
  0Cl  2py        0.020253  0.000000  0.000000 -0.003727 -0.000478 -0.000000
  0Cl  3pz       -0.000000  0.046571  0.143380  0.000000 -0.000000 -0.000000
  0Cl  3px       -0.031959 -0.000000 -0.000000 -0.001388  0.010810  0.000000
  0Cl  3py       -0.029136 -0.000000 -0.000000  0.010810  0.001388  0.000000
  0Cl  4pz       -0.000000  1.150367 -0.040301 -0.000000 -0.000000  0.000000
  0Cl  4px       -0.723469 -0.000000  0.000000 -0.009314  0.072554 -0.000000
  0Cl  4py       -0.659570  0.000000  0.000000  0.072554  0.009314 -0.000000
  0Cl  5pz        0.000000 -1.199715 -0.705844 -0.000000  0.000000  0.000000
  0Cl  5px        0.926735  0.000000 -0.000000 -0.006117  0.047646  0.000000
  0Cl  5py        0.844883 -0.000000 -0.000000  0.047646  0.006117 -0.000000
  0Cl  1dz2       0.000000  0.077624 -0.117401 -0.000000  0.000000  0.000000
  0Cl  1dxz       0.007570  0.000000  0.000000 -0.103966  0.809844  0.000000
  0Cl  1dyz       0.006901  0.000000 -0.000000  0.809844  0.103966 -0.000000
  0Cl  1dx2y2     0.000000 -0.000000 -0.000000 -0.000000  0.000000 -0.999391
  0Cl  1dxy      -0.000000 -0.000000 -0.000000 -0.000000  0.000000  0.034885
  1H   1s        -0.000000  0.083150  0.063927  0.000000 -0.000000 -0.000000
  1H   2s        -0.000000  0.811918  0.052835 -0.000000  0.000000 -0.000000
  1H   3s         0.000000 -1.091032 -1.288747 -0.000000  0.000000  0.000000
  1H   1pz       -0.000000  0.031518 -0.233384 -0.000000  0.000000  0.000000
  1H   1px       -0.007133 -0.000000 -0.000000  0.053703 -0.418321 -0.000000
  1H   1py       -0.006503  0.000000  0.000000 -0.418321 -0.053703  0.000000
                     18        19        20        21        22        23
                   1.13625   1.27514   1.74615   1.74615   2.33618   2.46485
                   0.00000   0.00000   0.00000   0.00000   0.00000   0.00000
                  --------  --------  --------  --------  --------  --------
  0Cl  1s        -0.000000  0.010561 -0.000000  0.000000  0.000594 -0.000000
  0Cl  2s        -0.000000  0.028885 -0.000000  0.000000  0.000766 -0.000000
  0Cl  3s         0.000000 -0.042375  0.000000 -0.000000  0.007198  0.000000
  0Cl  4s         0.000000 -0.216805  0.000000  0.000000 -0.047581  0.000000
  0Cl  5s        -0.000000  0.774388  0.000000 -0.000000  0.263612 -0.000000
  0Cl  6s         0.000000 -0.850684 -0.000000  0.000000 -0.444186  0.000000
  0Cl  1pz       -0.000000 -0.042318 -0.000000 -0.000000 -0.502079  0.000000
  0Cl  1px        0.000000 -0.000000 -0.071205  0.042039 -0.000000 -0.160749
  0Cl  1py       -0.000000 -0.000000 -0.042039 -0.071205 -0.000000 -0.766692
  0Cl  2pz       -0.000000 -0.017021 -0.000000 -0.000000 -0.159400  0.000000
  0Cl  2px        0.000000 -0.000000 -0.020824  0.012295  0.000000 -0.053295
  0Cl  2py       -0.000000 -0.000000 -0.012295 -0.020824 -0.000000 -0.254190
  0Cl  3pz        0.000000  0.121532  0.000000  0.000000  1.138064 -0.000000
  0Cl  3px       -0.000000  0.000000  0.118410 -0.069909  0.000000  0.391648
  0Cl  3py        0.000000  0.000000  0.069909  0.118410  0.000000  1.867960
  0Cl  4pz        0.000000 -0.205633  0.000000  0.000000 -1.002623  0.000000
  0Cl  4px        0.000000 -0.000000 -0.008253  0.004873 -0.000000 -0.373210
  0Cl  4py       -0.000000 -0.000000 -0.004873 -0.008253 -0.000000 -1.780019
  0Cl  5pz        0.000000  0.513116  0.000000 -0.000000  0.382515 -0.000000
  0Cl  5px       -0.000000  0.000000  0.146315 -0.086385  0.000000  0.113738
  0Cl  5py        0.000000  0.000000  0.086385  0.146315  0.000000  0.542470
  0Cl  1dz2      -0.000000 -0.835593 -0.000000 -0.000000 -0.230971 -0.000000
  0Cl  1dxz      -0.000000 -0.000000 -0.539770  0.318680  0.000000  0.012583
  0Cl  1dyz       0.000000 -0.000000 -0.318680 -0.539770  0.000000  0.060015
  0Cl  1dx2y2     0.034885 -0.000000 -0.000000  0.000000 -0.000000  0.000000
  0Cl  1dxy       0.999391 -0.000000  0.000000 -0.000000 -0.000000 -0.000000
  1H   1s         0.000000 -0.121897 -0.000000  0.000000  1.078969 -0.000000
  1H   2s         0.000000  0.862409  0.000000  0.000000 -1.343120  0.000000
  1H   3s        -0.000000 -0.062023  0.000000 -0.000000  0.848351 -0.000000
  1H   1pz       -0.000000 -0.313032  0.000000  0.000000  0.312140  0.000000
  1H   1px        0.000000 -0.000000 -0.828975  0.489427  0.000000  0.030777
  1H   1py       -0.000000 -0.000000 -0.489427 -0.828975  0.000000  0.146791
                     24        25        26        27        28        29
                   2.46485   2.58746   2.70538  10.24942  26.22101  26.22101
                   0.00000   0.00000   0.00000   0.00000   0.00000   0.00000
                  --------  --------  --------  --------  --------  --------
  0Cl  1s        -0.000000 -0.009792 -0.007675 -0.115774  0.000000  0.000000
  0Cl  2s        -0.000000 -0.029601 -0.021919 -0.482076  0.000000  0.000000
  0Cl  3s         0.000000  0.069799  0.040607  2.651447 -0.000000 -0.000000
  0Cl  4s         0.000000  0.129760  0.148733 -3.104428  0.000000  0.000000
  0Cl  5s        -0.000000 -0.252735 -0.328681  1.687327 -0.000000 -0.000000
  0Cl  6s         0.000000 -0.575637 -0.581553 -0.785130  0.000000  0.000000
  0Cl  1pz       -0.000000  0.495325 -0.364536 -0.000255  0.000000  0.000000
  0Cl  1px       -0.766692 -0.000000  0.000000  0.000000  3.091759  1.309005
  0Cl  1py        0.160749  0.000000 -0.000000  0.000000 -1.309005  3.091759
  0Cl  2pz       -0.000000  0.176608 -0.114135  0.008941  0.000000  0.000000
  0Cl  2px       -0.254190  0.000000  0.000000  0.000000  3.132827  1.326392
  0Cl  2py        0.053295  0.000000  0.000000  0.000000 -1.326392  3.132827
  0Cl  3pz        0.000000 -1.453388  0.748301  0.072903 -0.000000 -0.000000
  0Cl  3px        1.867960  0.000000 -0.000000 -0.000000 -2.133250 -0.903186
  0Cl  3py       -0.391648 -0.000000  0.000000 -0.000000  0.903186 -2.133250
  0Cl  4pz       -0.000000  2.353052  0.183041 -0.272648  0.000000  0.000000
  0Cl  4px       -1.780019 -0.000000  0.000000  0.000000  0.995166  0.421338
  0Cl  4py        0.373210  0.000000 -0.000000  0.000000 -0.421338  0.995166
  0Cl  5pz        0.000000 -0.444003  0.359112  0.208047 -0.000000 -0.000000
  0Cl  5px        0.542470  0.000000 -0.000000 -0.000000 -0.259834 -0.110010
  0Cl  5py       -0.113738 -0.000000  0.000000 -0.000000  0.110010 -0.259834
  0Cl  1dz2       0.000000 -0.859436 -0.557688  0.093773 -0.000000 -0.000000
  0Cl  1dxz       0.060015  0.000000  0.000000 -0.000000 -0.006902 -0.002922
  0Cl  1dyz      -0.012583  0.000000  0.000000 -0.000000  0.002922 -0.006902
  0Cl  1dx2y2     0.000000  0.000000  0.000000 -0.000000 -0.000000 -0.000000
  0Cl  1dxy       0.000000 -0.000000 -0.000000  0.000000  0.000000 -0.000000
  1H   1s        -0.000000  0.395807 -1.085997  0.032751  0.000000  0.000000
  1H   2s         0.000000  0.822050  2.054686 -0.237307  0.000000  0.000000
  1H   3s        -0.000000 -0.062968 -0.321354  0.338109 -0.000000 -0.000000
  1H   1pz        0.000000  1.183618  1.073534 -0.199677 -0.000000 -0.000000
  1H   1px        0.146791  0.000000  0.000000 -0.000000 -0.027563 -0.011670
  1H   1py       -0.030777  0.000000  0.000000 -0.000000  0.011670 -0.027563
                     30        31
                  26.42001 219.07197
                   0.00000   0.00000
                  --------  --------
  0Cl  1s         0.001267  1.542083
  0Cl  2s         0.003931 -1.914798
  0Cl  3s        -0.029111  1.437729
  0Cl  4s         0.046958 -0.963950
  0Cl  5s        -0.059604  0.383274
  0Cl  6s         0.084422 -0.179469
  0Cl  1pz        3.384709 -0.008883
  0Cl  1px       -0.000000  0.000000
  0Cl  1py       -0.000000 -0.000000
  0Cl  2pz        3.422670 -0.007465
  0Cl  2px       -0.000000  0.000000
  0Cl  2py       -0.000000 -0.000000
  0Cl  3pz       -2.370665  0.019998
  0Cl  3px        0.000000 -0.000000
  0Cl  3py        0.000000  0.000000
  0Cl  4pz        1.168470 -0.055930
  0Cl  4px       -0.000000  0.000000
  0Cl  4py       -0.000000 -0.000000
  0Cl  5pz       -0.346089  0.047680
  0Cl  5px        0.000000 -0.000000
  0Cl  5py        0.000000  0.000000
  0Cl  1dz2      -0.027749  0.017098
  0Cl  1dxz       0.000000  0.000000
  0Cl  1dyz       0.000000  0.000000
  0Cl  1dx2y2     0.000000 -0.000000
  0Cl  1dxy      -0.000000  0.000000
  1H   1s         0.049489  0.006878
  1H   2s         0.110927 -0.046223
  1H   3s        -0.171235  0.076737
  1H   1pz       -0.004952 -0.037783
  1H   1px        0.000000  0.000000
  1H   1py        0.000000  0.000000

                      0         1         2         3         4         5
                 -104.85063 -10.57734  -8.04587  -8.04261  -8.04261  -1.12136
                   1.00000   1.00000   1.00000   1.00000   1.00000   1.00000
                  --------  --------  --------  --------  --------  --------
  0Cl  1s        -0.411732  0.121940  0.000666  0.000000 -0.000000 -0.034691
  0Cl  2s        -0.654663  0.331491  0.001855  0.000000 -0.000000 -0.100382
  0Cl  3s        -0.012083 -0.511845 -0.003511 -0.000000  0.000000  0.198351
  0Cl  4s         0.000905 -0.605658 -0.002684 -0.000000  0.000000  0.396257
  0Cl  5s        -0.000206 -0.042327  0.000616  0.000000  0.000000 -0.600406
  0Cl  6s         0.000111  0.009554  0.000214  0.000000 -0.000000 -0.507184
  0Cl  1pz        0.000164  0.005728 -1.230125 -0.000000  0.000000 -0.043948
  0Cl  1px       -0.000000 -0.000000 -0.000000  0.676635 -1.028782  0.000000
  0Cl  1py       -0.000000 -0.000000 -0.000000 -1.028782 -0.676635  0.000000
  0Cl  2pz        0.000106  0.001558 -0.327112 -0.000000  0.000000 -0.011424
  0Cl  2px       -0.000000 -0.000000 -0.000000  0.179856 -0.273459  0.000000
  0Cl  2py       -0.000000 -0.000000 -0.000000 -0.273459 -0.179856  0.000000
  0Cl  3pz       -0.000107  0.000402 -0.051590 -0.000000  0.000000  0.029557
  0Cl  3px        0.000000  0.000000 -0.000000  0.027042 -0.041115  0.000000
  0Cl  3py        0.000000  0.000000 -0.000000 -0.041115 -0.027042 -0.000000
  0Cl  4pz        0.000087  0.001954  0.002891 -0.000000 -0.000000  0.044296
  0Cl  4px       -0.000000 -0.000000  0.000000 -0.001194  0.001815 -0.000000
  0Cl  4py       -0.000000 -0.000000  0.000000  0.001815  0.001194  0.000000
  0Cl  5pz       -0.000042 -0.002036 -0.001039 -0.000000 -0.000000  0.014497
  0Cl  5px        0.000000  0.000000 -0.000000  0.000374 -0.000568  0.000000
  0Cl  5py        0.000000  0.000000 -0.000000 -0.000568 -0.000374 -0.000000
  0Cl  1dz2      -0.000018 -0.000952  0.000526  0.000000 -0.000000 -0.017909
  0Cl  1dxz       0.000000  0.000000  0.000000 -0.000170  0.000259 -0.000000
  0Cl  1dyz       0.000000  0.000000  0.000000  0.000259  0.000170 -0.000000
  0Cl  1dx2y2     0.000000  0.000000 -0.000000  0.000000 -0.000000 -0.000000
  0Cl  1dxy       0.000000  0.000000  0.000000  0.000000  0.000000 -0.000000
  1H   1s         0.000003 -0.000268  0.000413 -0.000000 -0.000000 -0.088687
  1H   2s         0.000034  0.001740  0.000195 -0.000000 -0.000000 -0.116786
  1H   3s        -0.000049 -0.003540 -0.000416  0.000000  0.000000  0.009675
  1H   1pz        0.000024  0.001382 -0.000039  0.000000 -0.000000 -0.030037
  1H   1px        0.000000  0.000000 -0.000000  0.000015 -0.000023 -0.000000
  1H   1py        0.000000 -0.000000  0.000000 -0.000023 -0.000015  0.000000
                      6         7         8         9        10        11
                  -0.62930  -0.47831  -0.47831   0.12313   0.31486   0.41730
                   1.00000   1.00000   1.00000   0.00000   0.00000   0.00000
                  --------  --------  --------  --------  --------  --------
  0Cl  1s        -0.010593  0.000000  0.000000  0.010623 -0.003135 -0.000000
  0Cl  2s        -0.030940  0.000000  0.000000  0.031796 -0.009389 -0.000000
  0Cl  3s         0.063668 -0.000000 -0.000000 -0.071745  0.021313  0.000000
  0Cl  4s         0.121028 -0.000000 -0.000000 -0.102246  0.030307 -0.000000
  0Cl  5s        -0.182819  0.000000  0.000000  0.072367  0.019509  0.000000
  0Cl  6s        -0.289664  0.000000  0.000000  1.023457 -0.278002 -0.000000
  0Cl  1pz        0.278751 -0.000000 -0.000000  0.131394 -0.004770 -0.000000
  0Cl  1px       -0.000000  0.215957  0.256197 -0.000000 -0.000000 -0.127301
  0Cl  1py       -0.000000  0.256197 -0.215957 -0.000000 -0.000000  0.139634
  0Cl  2pz        0.068209 -0.000000 -0.000000  0.031808 -0.003723 -0.000000
  0Cl  2px       -0.000000  0.051530  0.061132 -0.000000  0.000000 -0.020253
  0Cl  2py       -0.000000  0.061132 -0.051530  0.000000 -0.000000  0.022215
  0Cl  3pz       -0.200679  0.000000  0.000000 -0.100939  0.012758 -0.000000
  0Cl  3px       -0.000000 -0.155513 -0.184490  0.000000 -0.000000  0.029136
  0Cl  3py        0.000000 -0.184490  0.155513 -0.000000  0.000000 -0.031959
  0Cl  4pz       -0.426286  0.000000  0.000000 -0.229171 -0.060046  0.000000
  0Cl  4px       -0.000000 -0.384718 -0.456404  0.000000 -0.000000  0.659570
  0Cl  4py        0.000000 -0.456404  0.384718  0.000000  0.000000 -0.723469
  0Cl  5pz       -0.159876  0.000000  0.000000 -0.827491  0.975787 -0.000000
  0Cl  5px       -0.000000 -0.216912 -0.257329 -0.000000  0.000000 -0.844883
  0Cl  5py       -0.000000 -0.257329  0.216912 -0.000000 -0.000000  0.926735
  0Cl  1dz2       0.055178  0.000000  0.000000 -0.043952  0.135893  0.000000
  0Cl  1dxz      -0.000000  0.008589  0.010189 -0.000000 -0.000000 -0.006901
  0Cl  1dyz      -0.000000  0.010189 -0.008589 -0.000000  0.000000  0.007570
  0Cl  1dx2y2    -0.000000 -0.000000  0.000000  0.000000 -0.000000 -0.000000
  0Cl  1dxy      -0.000000 -0.000000  0.000000  0.000000 -0.000000  0.000000
  1H   1s         0.152935 -0.000000 -0.000000 -0.084730  0.089998  0.000000
  1H   2s         0.317450 -0.000000 -0.000000 -0.051632  1.220380  0.000000
  1H   3s         0.039503  0.000000 -0.000000 -1.718866 -0.638517 -0.000000
  1H   1pz        0.035433 -0.000000 -0.000000  0.011496  0.043167  0.000000
  1H   1px       -0.000000 -0.015838 -0.018789 -0.000000  0.000000  0.006503
  1H   1py       -0.000000 -0.018789  0.015838  0.000000 -0.000000 -0.007133
                     12        13        14        15        16        17
                   0.41730   0.45862   0.94369   0.99218   0.99218   1.13625
                   0.00000   0.00000   0.00000   0.00000   0.00000   0.00000
                  --------  --------  --------  --------  --------  --------
  0Cl  1s        -0.000000  0.004447 -0.032337 -0.000000  0.000000  0.000000
  0Cl  2s        -0.000000  0.012584 -0.088614 -0.000000  0.000000  0.000000
  0Cl  3s         0.000000 -0.022507  0.131950  0.000000 -0.000000 -0.000000
  0Cl  4s         0.000000 -0.070917  0.635259  0.000000 -0.000000 -0.000000
  0Cl  5s        -0.000000  0.224572 -2.270863 -0.000000  0.000000  0.000000
  0Cl  6s         0.000000  0.032334  2.634371  0.000000 -0.000000 -0.000000
  0Cl  1pz        0.000000 -0.220974 -0.086027  0.000000  0.000000  0.000000
  0Cl  1px        0.139634  0.000000  0.000000  0.002764 -0.021527 -0.000000
  0Cl  1py        0.127301  0.000000  0.000000 -0.021527 -0.002764 -0.000000
  0Cl  2pz        0.000000 -0.037108 -0.025782  0.000000  0.000000  0.000000
  0Cl  2px        0.022215 -0.000000  0.000000  0.000478 -0.003727 -0.000000
  0Cl  2py        0.020253  0.000000  0.000000 -0.003727 -0.000478 -0.000000
  0Cl  3pz       -0.000000  0.046571  0.143380  0.000000 -0.000000 -0.000000
  0Cl  3px       -0.031959 -0.000000 -0.000000 -0.001388  0.010810  0.000000
  0Cl  3py       -0.029136 -0.000000 -0.000000  0.010810  0.001388  0.000000
  0Cl  4pz       -0.000000  1.150367 -0.040301 -0.000000 -0.000000  0.000000
  0Cl  4px       -0.723469 -0.000000  0.000000 -0.009314  0.072554 -0.000000
  0Cl  4py       -0.659570  0.000000  0.000000  0.072554  0.009314 -0.000000
  0Cl  5pz        0.000000 -1.199715 -0.705844 -0.000000  0.000000  0.000000
  0Cl  5px        0.926735  0.000000 -0.000000 -0.006117  0.047646  0.000000
  0Cl  5py        0.844883 -0.000000 -0.000000  0.047646  0.006117 -0.000000
  0Cl  1dz2       0.000000  0.077624 -0.117401 -0.000000  0.000000  0.000000
  0Cl  1dxz       0.007570  0.000000  0.000000 -0.103966  0.809844  0.000000
  0Cl  1dyz       0.006901  0.000000 -0.000000  0.809844  0.103966 -0.000000
  0Cl  1dx2y2     0.000000 -0.000000 -0.000000 -0.000000  0.000000 -0.999391
  0Cl  1dxy      -0.000000 -0.000000 -0.000000 -0.000000  0.000000  0.034885
  1H   1s        -0.000000  0.083150  0.063927  0.000000 -0.000000 -0.000000
  1H   2s        -0.000000  0.811918  0.052835 -0.000000  0.000000 -0.000000
  1H   3s         0.000000 -1.091032 -1.288747 -0.000000  0.000000  0.000000
  1H   1pz       -0.000000  0.031518 -0.233384 -0.000000  0.000000  0.000000
  1H   1px       -0.007133 -0.000000 -0.000000  0.053703 -0.418321 -0.000000
  1H   1py       -0.006503  0.000000  0.000000 -0.418321 -0.053703  0.000000
                     18        19        20        21        22        23
                   1.13625   1.27514   1.74615   1.74615   2.33618   2.46485
                   0.00000   0.00000   0.00000   0.00000   0.00000   0.00000
                  --------  --------  --------  --------  --------  --------
  0Cl  1s        -0.000000  0.010561 -0.000000  0.000000  0.000594 -0.000000
  0Cl  2s        -0.000000  0.028885 -0.000000  0.000000  0.000766 -0.000000
  0Cl  3s         0.000000 -0.042375  0.000000 -0.000000  0.007198  0.000000
  0Cl  4s         0.000000 -0.216805  0.000000  0.000000 -0.047581  0.000000
  0Cl  5s        -0.000000  0.774388  0.000000 -0.000000  0.263612 -0.000000
  0Cl  6s         0.000000 -0.850684 -0.000000  0.000000 -0.444186  0.000000
  0Cl  1pz       -0.000000 -0.042318 -0.000000 -0.000000 -0.502079  0.000000
  0Cl  1px        0.000000 -0.000000 -0.071205  0.042039 -0.000000 -0.160749
  0Cl  1py       -0.000000 -0.000000 -0.042039 -0.071205 -0.000000 -0.766692
  0Cl  2pz       -0.000000 -0.017021 -0.000000 -0.000000 -0.159400  0.000000
  0Cl  2px        0.000000 -0.000000 -0.020824  0.012295  0.000000 -0.053295
  0Cl  2py       -0.000000 -0.000000 -0.012295 -0.020824 -0.000000 -0.254190
  0Cl  3pz        0.000000  0.121532  0.000000  0.000000  1.138064 -0.000000
  0Cl  3px       -0.000000  0.000000  0.118410 -0.069909  0.000000  0.391648
  0Cl  3py        0.000000  0.000000  0.069909  0.118410  0.000000  1.867960
  0Cl  4pz        0.000000 -0.205633  0.000000  0.000000 -1.002623  0.000000
  0Cl  4px        0.000000 -0.000000 -0.008253  0.004873 -0.000000 -0.373210
  0Cl  4py       -0.000000 -0.000000 -0.004873 -0.008253 -0.000000 -1.780019
  0Cl  5pz        0.000000  0.513116  0.000000 -0.000000  0.382515 -0.000000
  0Cl  5px       -0.000000  0.000000  0.146315 -0.086385  0.000000  0.113738
  0Cl  5py        0.000000  0.000000  0.086385  0.146315  0.000000  0.542470
  0Cl  1dz2      -0.000000 -0.835593 -0.000000 -0.000000 -0.230971 -0.000000
  0Cl  1dxz      -0.000000 -0.000000 -0.539770  0.318680  0.000000  0.012583
  0Cl  1dyz       0.000000 -0.000000 -0.318680 -0.539770  0.000000  0.060015
  0Cl  1dx2y2     0.034885 -0.000000 -0.000000  0.000000 -0.000000  0.000000
  0Cl  1dxy       0.999391 -0.000000  0.000000 -0.000000 -0.000000 -0.000000
  1H   1s         0.000000 -0.121897 -0.000000  0.000000  1.078969 -0.000000
  1H   2s         0.000000  0.862409  0.000000  0.000000 -1.343120  0.000000
  1H   3s        -0.000000 -0.062023  0.000000 -0.000000  0.848351 -0.000000
  1H   1pz       -0.000000 -0.313032  0.000000  0.000000  0.312140  0.000000
  1H   1px        0.000000 -0.000000 -0.828975  0.489427  0.000000  0.030777
  1H   1py       -0.000000 -0.000000 -0.489427 -0.828975  0.000000  0.146791
                     24        25        26        27        28        29
                   2.46485   2.58746   2.70538  10.24942  26.22101  26.22101
                   0.00000   0.00000   0.00000   0.00000   0.00000   0.00000
                  --------  --------  --------  --------  --------  --------
  0Cl  1s        -0.000000 -0.009792 -0.007675 -0.115774  0.000000  0.000000
  0Cl  2s        -0.000000 -0.029601 -0.021919 -0.482076  0.000000  0.000000
  0Cl  3s         0.000000  0.069799  0.040607  2.651447 -0.000000 -0.000000
  0Cl  4s         0.000000  0.129760  0.148733 -3.104428  0.000000  0.000000
  0Cl  5s        -0.000000 -0.252735 -0.328681  1.687327 -0.000000 -0.000000
  0Cl  6s         0.000000 -0.575637 -0.581553 -0.785130  0.000000  0.000000
  0Cl  1pz       -0.000000  0.495325 -0.364536 -0.000255  0.000000  0.000000
  0Cl  1px       -0.766692 -0.000000  0.000000  0.000000  3.091759  1.309005
  0Cl  1py        0.160749  0.000000 -0.000000  0.000000 -1.309005  3.091759
  0Cl  2pz       -0.000000  0.176608 -0.114135  0.008941  0.000000  0.000000
  0Cl  2px       -0.254190  0.000000  0.000000  0.000000  3.132827  1.326392
  0Cl  2py        0.053295  0.000000  0.000000  0.000000 -1.326392  3.132827
  0Cl  3pz        0.000000 -1.453388  0.748301  0.072903 -0.000000 -0.000000
  0Cl  3px        1.867960  0.000000 -0.000000 -0.000000 -2.133250 -0.903186
  0Cl  3py       -0.391648 -0.000000  0.000000 -0.000000  0.903186 -2.133250
  0Cl  4pz       -0.000000  2.353052  0.183041 -0.272648  0.000000  0.000000
  0Cl  4px       -1.780019 -0.000000  0.000000  0.000000  0.995166  0.421338
  0Cl  4py        0.373210  0.000000 -0.000000  0.000000 -0.421338  0.995166
  0Cl  5pz        0.000000 -0.444003  0.359112  0.208047 -0.000000 -0.000000
  0Cl  5px        0.542470  0.000000 -0.000000 -0.000000 -0.259834 -0.110010
  0Cl  5py       -0.113738 -0.000000  0.000000 -0.000000  0.110010 -0.259834
  0Cl  1dz2       0.000000 -0.859436 -0.557688  0.093773 -0.000000 -0.000000
  0Cl  1dxz       0.060015  0.000000  0.000000 -0.000000 -0.006902 -0.002922
  0Cl  1dyz      -0.012583  0.000000  0.000000 -0.000000  0.002922 -0.006902
  0Cl  1dx2y2     0.000000  0.000000  0.000000 -0.000000 -0.000000 -0.000000
  0Cl  1dxy       0.000000 -0.000000 -0.000000  0.000000  0.000000 -0.000000
  1H   1s        -0.000000  0.395807 -1.085997  0.032751  0.000000  0.000000
  1H   2s         0.000000  0.822050  2.054686 -0.237307  0.000000  0.000000
  1H   3s        -0.000000 -0.062968 -0.321354  0.338109 -0.000000 -0.000000
  1H   1pz        0.000000  1.183618  1.073534 -0.199677 -0.000000 -0.000000
  1H   1px        0.146791  0.000000  0.000000 -0.000000 -0.027563 -0.011670
  1H   1py       -0.030777  0.000000  0.000000 -0.000000  0.011670 -0.027563
                     30        31
                  26.42001 219.07197
                   0.00000   0.00000
                  --------  --------
  0Cl  1s         0.001267  1.542083
  0Cl  2s         0.003931 -1.914798
  0Cl  3s        -0.029111  1.437729
  0Cl  4s         0.046958 -0.963950
  0Cl  5s        -0.059604  0.383274
  0Cl  6s         0.084422 -0.179469
  0Cl  1pz        3.384709 -0.008883
  0Cl  1px       -0.000000  0.000000
  0Cl  1py       -0.000000 -0.000000
  0Cl  2pz        3.422670 -0.007465
  0Cl  2px       -0.000000  0.000000
  0Cl  2py       -0.000000 -0.000000
  0Cl  3pz       -2.370665  0.019998
  0Cl  3px        0.000000 -0.000000
  0Cl  3py        0.000000  0.000000
  0Cl  4pz        1.168470 -0.055930
  0Cl  4px       -0.000000  0.000000
  0Cl  4py       -0.000000 -0.000000
  0Cl  5pz       -0.346089  0.047680
  0Cl  5px        0.000000 -0.000000
  0Cl  5py        0.000000  0.000000
  0Cl  1dz2      -0.027749  0.017098
  0Cl  1dxz       0.000000  0.000000
  0Cl  1dyz       0.000000  0.000000
  0Cl  1dx2y2     0.000000 -0.000000
  0Cl  1dxy      -0.000000  0.000000
  1H   1s         0.049489  0.006878
  1H   2s         0.110927 -0.046223
  1H   3s        -0.171235  0.076737
  1H   1pz       -0.004952 -0.037783
  1H   1px        0.000000  0.000000
  1H   1py        0.000000  0.000000

MULLIKEN ATOMIC CHARGES AND SPIN DENSITIES
------------------------------------------
   0 Cl:   -0.159556    0.000000
   1 H :    0.159556    0.000000
Sum of atomic charges       :   -0.0000000

LOEWDIN ATOMIC CHARGES AND SPIN DENSITIES
-----------------------------------------
   0 Cl:    0.037617    0.000000
   1 H :   -0.037617    0.000000

  Mayer bond orders larger than 0.100000
B(  0-Cl,  1-H ) :   0.9511

MP2 TOTAL ENERGY:     -460.292970945 Eh
FINAL SINGLE POINT ENERGY      -460.292970944551

DIPOLE MOMENT
-------------
                                X             Y             Z
Electronic contribution:     -0.00000      -0.00000       0.66254
Nuclear contribution   :      0.00000       0.00000      -1.20904
                        -----------------------------------------
Total Dipole Moment    :     -0.00000      -0.00000      -0.54649
                        -----------------------------------------
Magnitude (a.u.)       :      0.54649
Magnitude (Debye)      :      1.38908

VIBRATIONAL FREQUENCIES
-----------------------

Scaling factor for frequencies =  1.000000000  (already applied!)

   0:         0.00 cm**-1
   1:         0.00 cm**-1
   2:         0.00 cm**-1
   3:         0.00 cm**-1
   4:         0.00 cm**-1
   5:      3083.90 cm**-1

IR SPECTRUM
-----------

 Mode    freq (cm**-1)   T**2         TX         TY         TZ
-------------------------------------------------------------------
   5:      3083.90   35.239294  (  0.000000   0.000000  -5.936269)

--------------------------
THERMOCHEMISTRY AT 298.15K
--------------------------

Temperature         ... 298.15 K
Pressure            ... 1.00 atm
Total Mass          ... 36.46 AMU
The molecule is recognized as being linear

Throughout the following assumptions are being made:
  (1) The electronic state is orbitally nondegenerate
  (2) There are no thermally accessible electronically excited states
  (3) Hindered rotations indicated by low frequency modes are not
      treated as such but are treated as vibrations and this may
      cause some error
  (4) All equations used are the standard statistical mechanics
      equations for an ideal gas
  (5) All vibrations are strictly harmonic

freq.    3083.90  E(vib)   ...       0.00

------------
INNER ENERGY
------------

The inner energy is: U= E(el) + E(ZPE) + E(vib) + E(rot) + E(trans)
    E(el)   - is the total energy from the electronic structure calculation
              = E(kin-el) + E(nuc-el) + E(el-el) + E(nuc-nuc)
    E(ZPE)  - the the zero temperature vibrational energy from the frequency calculation
    E(vib)  - the the finite temperature correction to E(ZPE) due to population
              of excited vibrational states
    E(rot)  - is the rotational thermal energy
    E(trans)- is the translational thermal energy

Summary of contributions to the inner energy U:
Electronic energy                ...   -460.29297094 Eh
Zero point energy                ...      0.00702565 Eh       4.41 kcal/mol
Thermal vibrational correction   ...      0.00000000 Eh       0.00 kcal/mol
Thermal rotational correction    ...      0.00094418 Eh       0.59 kcal/mol
Thermal translational correction ...      0.00141627 Eh       0.89 kcal/mol
-----------------------------------------------------------------------
Total thermal energy                   -460.28358484 Eh

Summary of corrections to the electronic energy:
(perhaps to be used in another calculation)
Total thermal correction                  0.00236046 Eh       1.48 kcal/mol
Non-thermal (ZPE) correction              0.00702565 Eh       4.41 kcal/mol
-----------------------------------------------------------------------
Total correction                          0.00938611 Eh       5.89 kcal/mol

--------
ENTHALPY
--------

The enthalpy is H = U + kB*T
                kB is Boltzmann's constant
Total free energy                 ...   -460.28358484 Eh
Thermal Enthalpy correction       ...      0.00094421 Eh       0.59 kcal/mol
-----------------------------------------------------------------------
Total Enthalpy                    ...   -460.28264063 Eh

Note: Rotational entropy computed according to Herzberg
Infrared and Raman Spectra, Chapter V,1, Van Nostrand Reinhold, 1945
Point Group:  Cinfv, Symmetry Number:   1
Rotational constants in cm-1:     0.000000    10.604299    10.604299

Vibrational entropy computed according to the QRRHO of S. Grimme
Chem.Eur.J. 2012 18 9955

-------
ENTROPY
-------

The entropy contributions are T*S = T*(S(el)+S(vib)+S(rot)+S(trans))
     S(el)   - electronic entropy
     S(vib)  - vibrational entropy
     S(rot)  - rotational entropy
     S(trans)- translational entropy
The entropies will be listed as mutliplied by the temperature to get
units of energy

Electronic entropy                ...      0.00000000 Eh      0.00 kcal/mol
Vibrational entropy               ...      0.00000000 Eh      0.00 kcal/mol
Rotational entropy                ...      0.00375081 Eh      2.35 kcal/mol
Translational entropy             ...      0.01744233 Eh     10.95 kcal/mol
-----------------------------------------------------------------------
Final entropy term                ...      0.02119314 Eh     13.30 kcal/mol

In case the symmetry of your molecule has not been determined correctly
or in case you have a reason to use a different symmetry number we print
out the resulting rotational entropy values for sn=1,12 :
 --------------------------------------------------------
|  sn= 1 | S(rot)=             -inf Eh      -inf kcal/mol|
|  sn= 2 | S(rot)=             -inf Eh      -inf kcal/mol|
|  sn= 3 | S(rot)=             -inf Eh      -inf kcal/mol|
|  sn= 4 | S(rot)=             -inf Eh      -inf kcal/mol|
|  sn= 5 | S(rot)=             -inf Eh      -inf kcal/mol|
|  sn= 6 | S(rot)=             -inf Eh      -inf kcal/mol|
|  sn= 7 | S(rot)=             -inf Eh      -inf kcal/mol|
|  sn= 8 | S(rot)=             -inf Eh      -inf kcal/mol|
|  sn= 9 | S(rot)=             -inf Eh      -inf kcal/mol|
|  sn=10 | S(rot)=             -inf Eh      -inf kcal/mol|
|  sn=11 | S(rot)=             -inf Eh      -inf kcal/mol|
|  sn=12 | S(rot)=             -inf Eh      -inf kcal/mol|
 --------------------------------------------------------

-------------------
GIBBS FREE ENERGY
-------------------

The Gibbs free energy is G = H - T*S

Total enthalpy                    ...   -460.28264063 Eh
Total entropy correction          ...     -0.02119314 Eh    -13.30 kcal/mol
-----------------------------------------------------------------------
Final Gibbs free energy         ...   -460.30383377 Eh

For completeness - the Gibbs free energy minus the electronic energy
G-E(el)                           ...     -0.01086282 Eh     -6.82 kcal/mol

                             ****ORCA TERMINATED NORMALLY****
TOTAL RUN TIME: 0 days 0 hours 0 minutes 23 seconds 647 msec
