                         Program Version 4.2.1 -  RELEASE  -
|  1> ! BLYP D4 def2-TZVP RI def2/J TightSCF Grid4 FinalGrid5 PrintBasis PrintMOs
|  2> %maxcore 1150
|  3>
|  4> * xyzfile 0 1 init.xyz
|  5>
|  6> %cpcm
|  7>  smd true
|  8>  smdsolvent "water"
|  9> end
| 10>
| 11>                          ****END OF INPUT****

CARTESIAN COORDINATES (ANGSTROEM)
---------------------------------
  He     0.000000    0.000000    0.000000

 Total Charge           Charge          ....    0
 Multiplicity           Mult            ....    1
 Number of Electrons    NEL             ....    2
 Basis Dimension        Dim             ....    6

ORBITAL ENERGIES
----------------

  NO   OCC          E(Eh)            E(eV)
   0   2.0000      -0.578683       -15.7468
   1   0.0000       0.600242        16.3334
   2   0.0000       1.625848        44.2416
   3   0.0000       1.625848        44.2416
   4   0.0000       1.625848        44.2416
   5   0.0000       5.606802       152.5688
------------------
MOLECULAR ORBITALS
------------------
                      0         1         2         3         4         5
                  -0.57868   0.60024   1.62585   1.62585   1.62585   5.60680
                   2.00000   0.00000   0.00000   0.00000   0.00000   0.00000
                  --------  --------  --------  --------  --------  --------
  0He  1s         0.275145 -0.174171  0.000000  0.000000  0.000000 -1.437874
  0He  2s         0.457619 -1.120570  0.000000  0.000000  0.000000  1.729355
  0He  3s         0.421315  1.406744 -0.000000 -0.000000 -0.000000 -0.724940
  0He  1pz       -0.000000 -0.000000 -0.776325  0.252974 -0.577341 -0.000000
  0He  1px       -0.000000 -0.000000  0.607254  0.545736 -0.577422 -0.000000
  0He  1py       -0.000000 -0.000000  0.169003 -0.798860 -0.577288 -0.000000

MULLIKEN ATOMIC CHARGES
-----------------------
   0 He:    0.000000
Sum of atomic charges:    0.0000000

LOEWDIN ATOMIC CHARGES
----------------------
   0 He:    0.000000

Dispersion correction            0.000000000
FINAL SINGLE POINT ENERGY        -2.904611789186

DIPOLE MOMENT
-------------
                                X             Y             Z
Electronic contribution:      0.00000       0.00000       0.00000
Nuclear contribution   :      0.00000       0.00000       0.00000
                        -----------------------------------------
Total Dipole Moment    :      0.00000       0.00000       0.00000
                        -----------------------------------------
Magnitude (a.u.)       :      0.00000
Magnitude (Debye)      :      0.00000

Rotational constants in cm-1:     0.000000     0.000000     0.000000
Rotational constants in MHz :     0.000000     0.000000     0.000000

                             ****ORCA TERMINATED NORMALLY****
TOTAL RUN TIME: 0 days 0 hours 0 minutes 1 seconds 421 msec
