                         Program Version 4.2.1 -  RELEASE  -
|  1> ! BLYP D4 def2-TZVP RI def2/J TightSCF Grid4 FinalGrid5 PrintBasis PrintMOs
|  2> %maxcore 1150
|  3>
|  4> * xyzfile 0 1 init.xyz
|  5>
|  6>                          ****END OF INPUT****

CARTESIAN COORDINATES (ANGSTROEM)
---------------------------------
  He     0.000000    0.000000    0.000000

 Total Charge           Charge          ....    0
 Multiplicity           Mult            ....    1
 Number of Electrons    NEL             ....    2
 Basis Dimension        Dim             ....    6

ORBITAL ENERGIES
----------------

  NO   OCC          E(Eh)            E(eV)
   0   2.0000      -0.579869       -15.7790
   1   0.0000       0.599073        16.3016
   2   0.0000       1.624659        44.2092
   3   0.0000       1.624659        44.2092
   4   0.0000       1.624659        44.2092
   5   0.0000       5.605620       152.5367
------------------
MOLECULAR ORBITALS
------------------
                      0         1         2         3         4         5
                  -0.57987   0.59907   1.62466   1.62466   1.62466   5.60562
                   2.00000   0.00000   0.00000   0.00000   0.00000   0.00000
                  --------  --------  --------  --------  --------  --------
  0He  1s         0.275144  0.174172 -0.000000  0.000000 -0.000000 -1.437873
  0He  2s         0.457624  1.120565 -0.000000  0.000000 -0.000000  1.729357
  0He  3s         0.421309 -1.406745  0.000000 -0.000000  0.000000 -0.724943
  0He  1pz       -0.000000  0.000000 -0.083603  0.812199  0.577359 -0.000000
  0He  1px       -0.000000  0.000000 -0.661462 -0.478568  0.577443 -0.000000
  0He  1py       -0.000000  0.000000  0.745304 -0.333625  0.577249 -0.000000

MULLIKEN ATOMIC CHARGES
-----------------------
   0 He:    0.000000
Sum of atomic charges:    0.0000000

LOEWDIN ATOMIC CHARGES
----------------------
   0 He:    0.000000

Dispersion correction            0.000000000
FINAL SINGLE POINT ENERGY        -2.904609885571

DIPOLE MOMENT
-------------
                                X             Y             Z
Electronic contribution:      0.00000       0.00000       0.00000
Nuclear contribution   :      0.00000       0.00000       0.00000
                        -----------------------------------------
Total Dipole Moment    :      0.00000       0.00000       0.00000
                        -----------------------------------------
Magnitude (a.u.)       :      0.00000
Magnitude (Debye)      :      0.00000

Rotational constants in cm-1:     0.000000     0.000000     0.000000
Rotational constants in MHz :     0.000000     0.000000     0.000000

                             ****ORCA TERMINATED NORMALLY****
TOTAL RUN TIME: 0 days 0 hours 0 minutes 1 seconds 6 msec
