                         Program Version 4.2.1 -  RELEASE  -
|  1> ! MP2 6-311G(3df,3pd) Opt Freq TightOpt TightSCF NoFrozenCore
|  2> %maxcore 2000
|  3>
|  4> %pal
|  5>  nprocs 2
|  6> end
|  7>
|  8> *xyz 0 1
|  9>   C      0.000000    0.000000   -0.766300
| 10>   C      0.000000   -0.000000    0.766300
| 11>   H     -0.504756    0.874263   -1.168463
| 12>   H     -0.504756   -0.874263   -1.168463
| 13>   H      1.009513   -0.000000   -1.168463
| 14>   H     -0.504756   -0.874263    1.168463
| 15>   H     -0.504756    0.874263    1.168463
| 16>   H      1.009513    0.000000    1.168463
| 17> *
| 18>
| 19>                          ****END OF INPUT****
 Total Charge           Charge          ....    0
 Multiplicity           Mult            ....    1
 Number of Electrons    NEL             ....   18
MP2 TOTAL ENERGY:      -79.669934298 Eh
FINAL SINGLE POINT ENERGY       -79.669934297749
                    ***********************HURRAY********************

CARTESIAN COORDINATES (ANGSTROEM)
---------------------------------
  C      0.000000    0.000000   -0.766317
  C      0.000000    0.000000    0.766317
  H     -0.504759    0.874269   -1.168495
  H     -0.504759   -0.874269   -1.168495
  H      1.009520    0.000000   -1.168495
  H     -0.504759   -0.874269    1.168495
  H     -0.504759    0.874269    1.168495
  H      1.009520    0.000000    1.168495

 Multiplicity           Mult            ....    1
 Number of Electrons    NEL             ....   18
 Basis Dimension        Dim             ....  172

ORBITAL ENERGIES
----------------

  NO   OCC          E(Eh)            E(eV)
   0   2.0000     -11.207679      -304.9764
   1   2.0000     -11.207093      -304.9605
   2   2.0000      -1.016006       -27.6469
   3   2.0000      -0.844487       -22.9796
   4   2.0000      -0.596549       -16.2329
   5   2.0000      -0.596549       -16.2329
   6   2.0000      -0.510682       -13.8964
   7   2.0000      -0.484590       -13.1864
   8   2.0000      -0.484590       -13.1864
   9   0.0000       0.136200         3.7062
  10   0.0000       0.157669         4.2904
  11   0.0000       0.175522         4.7762
  12   0.0000       0.175522         4.7762
  13   0.0000       0.227972         6.2034

MULLIKEN ATOMIC CHARGES
-----------------------
   0 C :    0.013776
   1 C :    0.013776
   2 H :   -0.004592
   3 H :   -0.004592
   4 H :   -0.004592
   5 H :   -0.004592
   6 H :   -0.004592
   7 H :   -0.004592
Sum of atomic charges:   -0.0000000

LOEWDIN ATOMIC CHARGES
----------------------
   0 C :    0.321054
   1 C :    0.321054
   2 H :   -0.107018
   3 H :   -0.107018
   4 H :   -0.107018
   5 H :   -0.107018
   6 H :   -0.107018
   7 H :   -0.107018

  Mayer bond orders larger than 0.100000
B(  0-C ,  1-C ) :   0.8161 B(  0-C ,  2-H ) :   0.9774 B(  0-C ,  3-H ) :   0.9774
B(  0-C ,  4-H ) :   0.9774 B(  1-C ,  5-H ) :   0.9774 B(  1-C ,  6-H ) :   0.9774
B(  1-C ,  7-H ) :   0.9774

MP2 TOTAL ENERGY:      -79.669934292 Eh
FINAL SINGLE POINT ENERGY       -79.669934292202

DIPOLE MOMENT
-------------
                                X             Y             Z
Electronic contribution:     -0.00000       0.00000       0.00000
Nuclear contribution   :      0.00000      -0.00000      -0.00000
                        -----------------------------------------
Total Dipole Moment    :     -0.00000      -0.00000      -0.00000
                        -----------------------------------------
Magnitude (a.u.)       :      0.00000
Magnitude (Debye)      :      0.00000

VIBRATIONAL FREQUENCIES
-----------------------

Scaling factor for frequencies =  1.000000000  (already applied!)

   0:         0.00 cm**-1
   1:         0.00 cm**-1
   2:         0.00 cm**-1
   3:         0.00 cm**-1
   4:         0.00 cm**-1
   5:         0.00 cm**-1
   6:      -316.87 cm**-1 ***imaginary mode***
   7:       906.49 cm**-1
   8:       906.50 cm**-1
   9:      1034.27 cm**-1
  10:      1176.21 cm**-1
  11:      1176.21 cm**-1
  12:      1413.08 cm**-1
  13:      1451.93 cm**-1
  14:      1516.88 cm**-1
  15:      1516.92 cm**-1
  16:      1525.86 cm**-1
  17:      1525.91 cm**-1
  18:      3069.35 cm**-1
  19:      3077.98 cm**-1
  20:      3147.70 cm**-1
  21:      3147.71 cm**-1
  22:      3168.98 cm**-1
  23:      3168.99 cm**-1

IR SPECTRUM
-----------

 Mode    freq (cm**-1)   T**2         TX         TY         TZ
-------------------------------------------------------------------
   7:       906.49    2.618203  ( -1.618085   0.001828   0.000000)
   8:       906.50    2.618426  (  0.001828   1.618154   0.000002)
   9:      1034.27    0.000000  ( -0.000040   0.000001   0.000000)
  10:      1176.21    0.000000  (  0.000002  -0.000000  -0.000001)
  11:      1176.21    0.000000  ( -0.000000   0.000001  -0.000287)
  12:      1413.08    0.767784  ( -0.000000  -0.000000  -0.876233)
  13:      1451.93    0.000000  (  0.000511   0.000002  -0.000000)
  14:      1516.88    0.000000  (  0.000050   0.000000   0.000000)
  15:      1516.92    0.000000  (  0.000000  -0.000019  -0.000613)
  16:      1525.86   10.430696  (  0.000212   3.229659  -0.000002)
  17:      1525.91   10.425313  ( -3.228825   0.000212   0.000000)
  18:      3069.35   48.518015  ( -0.000000  -0.000001  -6.965487)
  19:      3077.98    0.000003  (  0.001707   0.000002   0.000001)
  20:      3147.70    0.000000  (  0.000001   0.000000   0.000005)
  21:      3147.71    0.000000  ( -0.000000  -0.000018   0.000410)
  22:      3168.98   37.588468  (  6.130848  -0.034243  -0.000000)
  23:      3168.99   37.595587  (  0.034240   6.131428   0.000001)

--------------------------
THERMOCHEMISTRY AT 298.15K
--------------------------

Temperature         ... 298.15 K
Pressure            ... 1.00 atm
Total Mass          ... 30.07 AMU

Throughout the following assumptions are being made:
  (1) The electronic state is orbitally nondegenerate
  (2) There are no thermally accessible electronically excited states
  (3) Hindered rotations indicated by low frequency modes are not
      treated as such but are treated as vibrations and this may
      cause some error
  (4) All equations used are the standard statistical mechanics
      equations for an ideal gas
  (5) All vibrations are strictly harmonic

freq.     906.49  E(vib)   ...       0.03
freq.     906.50  E(vib)   ...       0.03
freq.    1034.27  E(vib)   ...       0.02
freq.    1176.21  E(vib)   ...       0.01
freq.    1176.21  E(vib)   ...       0.01
freq.    1413.08  E(vib)   ...       0.00
freq.    1451.93  E(vib)   ...       0.00
freq.    1516.88  E(vib)   ...       0.00
freq.    1516.92  E(vib)   ...       0.00
freq.    1525.86  E(vib)   ...       0.00
freq.    1525.91  E(vib)   ...       0.00
freq.    3069.35  E(vib)   ...       0.00
freq.    3077.98  E(vib)   ...       0.00
freq.    3147.70  E(vib)   ...       0.00
freq.    3147.71  E(vib)   ...       0.00
freq.    3168.98  E(vib)   ...       0.00
freq.    3168.99  E(vib)   ...       0.00

------------
INNER ENERGY
------------

The inner energy is: U= E(el) + E(ZPE) + E(vib) + E(rot) + E(trans)
    E(el)   - is the total energy from the electronic structure calculation
              = E(kin-el) + E(nuc-el) + E(el-el) + E(nuc-nuc)
    E(ZPE)  - the the zero temperature vibrational energy from the frequency calculation
    E(vib)  - the the finite temperature correction to E(ZPE) due to population
              of excited vibrational states
    E(rot)  - is the rotational thermal energy
    E(trans)- is the translational thermal energy

Summary of contributions to the inner energy U:
Electronic energy                ...    -79.66993429 Eh
Zero point energy                ...      0.07502227 Eh      47.08 kcal/mol
Thermal vibrational correction   ...      0.00020556 Eh       0.13 kcal/mol
Thermal rotational correction    ...      0.00141627 Eh       0.89 kcal/mol
Thermal translational correction ...      0.00141627 Eh       0.89 kcal/mol
-----------------------------------------------------------------------
Total thermal energy                    -79.59187392 Eh

Summary of corrections to the electronic energy:
(perhaps to be used in another calculation)
Total thermal correction                  0.00303810 Eh       1.91 kcal/mol
Non-thermal (ZPE) correction              0.07502227 Eh      47.08 kcal/mol
-----------------------------------------------------------------------
Total correction                          0.07806038 Eh      48.98 kcal/mol

--------
ENTHALPY
--------

The enthalpy is H = U + kB*T
                kB is Boltzmann's constant
Total free energy                 ...    -79.59187392 Eh
Thermal Enthalpy correction       ...      0.00094421 Eh       0.59 kcal/mol
-----------------------------------------------------------------------
Total Enthalpy                    ...    -79.59092971 Eh

Note: Rotational entropy computed according to Herzberg
Infrared and Raman Spectra, Chapter V,1, Van Nostrand Reinhold, 1945
Point Group:  D3h, Symmetry Number:   6
Rotational constants in cm-1:     2.734990     0.662477     0.662477

Vibrational entropy computed according to the QRRHO of S. Grimme
Chem.Eur.J. 2012 18 9955

-------
ENTROPY
-------

The entropy contributions are T*S = T*(S(el)+S(vib)+S(rot)+S(trans))
     S(el)   - electronic entropy
     S(vib)  - vibrational entropy
     S(rot)  - rotational entropy
     S(trans)- translational entropy
The entropies will be listed as mutliplied by the temperature to get
units of energy

Electronic entropy                ...      0.00000000 Eh      0.00 kcal/mol
Vibrational entropy               ...      0.00024688 Eh      0.15 kcal/mol
Rotational entropy                ...      0.00773287 Eh      4.85 kcal/mol
Translational entropy             ...      0.01716939 Eh     10.77 kcal/mol
-----------------------------------------------------------------------
Final entropy term                ...      0.02514913 Eh     15.78 kcal/mol

In case the symmetry of your molecule has not been determined correctly
or in case you have a reason to use a different symmetry number we print
out the resulting rotational entropy values for sn=1,12 :
 --------------------------------------------------------
|  sn= 1 | S(rot)=       0.00942461 Eh      5.91 kcal/mol|
|  sn= 2 | S(rot)=       0.00877016 Eh      5.50 kcal/mol|
|  sn= 3 | S(rot)=       0.00838732 Eh      5.26 kcal/mol|
|  sn= 4 | S(rot)=       0.00811570 Eh      5.09 kcal/mol|
|  sn= 5 | S(rot)=       0.00790501 Eh      4.96 kcal/mol|
|  sn= 6 | S(rot)=       0.00773287 Eh      4.85 kcal/mol|
|  sn= 7 | S(rot)=       0.00758732 Eh      4.76 kcal/mol|
|  sn= 8 | S(rot)=       0.00746124 Eh      4.68 kcal/mol|
|  sn= 9 | S(rot)=       0.00735003 Eh      4.61 kcal/mol|
|  sn=10 | S(rot)=       0.00725055 Eh      4.55 kcal/mol|
|  sn=11 | S(rot)=       0.00716056 Eh      4.49 kcal/mol|
|  sn=12 | S(rot)=       0.00707841 Eh      4.44 kcal/mol|
 --------------------------------------------------------

-------------------
GIBBS FREE ENERGY
-------------------

The Gibbs free energy is G = H - T*S

Total enthalpy                    ...    -79.59092971 Eh
Total entropy correction          ...     -0.02514913 Eh    -15.78 kcal/mol
-----------------------------------------------------------------------
Final Gibbs free energy         ...    -79.61607884 Eh

For completeness - the Gibbs free energy minus the electronic energy
G-E(el)                           ...      0.05385545 Eh     33.79 kcal/mol

                             ****ORCA TERMINATED NORMALLY****
TOTAL RUN TIME: 0 days 0 hours 42 minutes 58 seconds 225 msec
