                         Program Version 4.2.1 -  RELEASE  -
|  1> ! MP2 6-311G(3df,3pd) Opt Freq TightOpt TightSCF NoFrozenCore
|  2> %maxcore 2000
|  3>
|  4> %pal
|  5>  nprocs 2
|  6> end
|  7>
|  8> *xyz 0 1
|  9>   C     -0.000000    0.000000    0.759477
| 10>   C     -0.000000   -0.000000   -0.759477
| 11>   H     -0.000000   -1.013934    1.153233
| 12>   H     -0.878093    0.506967    1.153233
| 13>   H      0.878093    0.506967    1.153233
| 14>   H     -0.878093   -0.506967   -1.153233
| 15>   H      0.878093   -0.506967   -1.153233
| 16>   H     -0.000000    1.013934   -1.153233
| 17> *
| 18>
| 19>                          ****END OF INPUT****
 Total Charge           Charge          ....    0
 Multiplicity           Mult            ....    1
 Number of Electrons    NEL             ....   18
MP2 TOTAL ENERGY:      -79.674702748 Eh
FINAL SINGLE POINT ENERGY       -79.674702747771
                    ***********************HURRAY********************

CARTESIAN COORDINATES (ANGSTROEM)
---------------------------------
  C     -0.000000    0.000000    0.759501
  C      0.000000   -0.000000   -0.759501
  H      0.000000   -1.013936    1.153277
  H     -0.878094    0.506968    1.153277
  H      0.878094    0.506968    1.153277
  H     -0.878094   -0.506968   -1.153277
  H      0.878094   -0.506968   -1.153277
  H     -0.000000    1.013936   -1.153277

 Multiplicity           Mult            ....    1
 Number of Electrons    NEL             ....   18
 Basis Dimension        Dim             ....  172

ORBITAL ENERGIES
----------------

  NO   OCC          E(Eh)            E(eV)
   0   2.0000     -11.208115      -304.9883
   1   2.0000     -11.207487      -304.9712
   2   2.0000      -1.019954       -27.7544
   3   2.0000      -0.841898       -22.9092
   4   2.0000      -0.598057       -16.2739
   5   2.0000      -0.598057       -16.2739
   6   2.0000      -0.511251       -13.9119
   7   2.0000      -0.486593       -13.2409
   8   2.0000      -0.486593       -13.2409
   9   0.0000       0.136316         3.7093
  10   0.0000       0.158150         4.3035
  11   0.0000       0.177980         4.8431
  12   0.0000       0.177980         4.8431
  13   0.0000       0.218529         5.9465

MULLIKEN ATOMIC CHARGES
-----------------------
   0 C :    0.011344
   1 C :    0.011344
   2 H :   -0.003781
   3 H :   -0.003781
   4 H :   -0.003781
   5 H :   -0.003781
   6 H :   -0.003781
   7 H :   -0.003781
Sum of atomic charges:   -0.0000000

LOEWDIN ATOMIC CHARGES
----------------------
   0 C :    0.311422
   1 C :    0.311422
   2 H :   -0.103807
   3 H :   -0.103807
   4 H :   -0.103807
   5 H :   -0.103807
   6 H :   -0.103807
   7 H :   -0.103807

  Mayer bond orders larger than 0.100000
B(  0-C ,  1-C ) :   0.8321 B(  0-C ,  2-H ) :   0.9756 B(  0-C ,  3-H ) :   0.9756
B(  0-C ,  4-H ) :   0.9756 B(  1-C ,  5-H ) :   0.9756 B(  1-C ,  6-H ) :   0.9756
B(  1-C ,  7-H ) :   0.9756

MP2 TOTAL ENERGY:      -79.674702736 Eh
FINAL SINGLE POINT ENERGY       -79.674702735659

DIPOLE MOMENT
-------------
                                X             Y             Z
Electronic contribution:     -0.00000       0.00000      -0.00000
Nuclear contribution   :      0.00000      -0.00000       0.00000
                        -----------------------------------------
Total Dipole Moment    :      0.00000       0.00000       0.00000
                        -----------------------------------------
Magnitude (a.u.)       :      0.00000
Magnitude (Debye)      :      0.00000

VIBRATIONAL FREQUENCIES
-----------------------

Scaling factor for frequencies =  1.000000000  (already applied!)

   0:         0.00 cm**-1
   1:         0.00 cm**-1
   2:         0.00 cm**-1
   3:         0.00 cm**-1
   4:         0.00 cm**-1
   5:         0.00 cm**-1
   6:       324.66 cm**-1
   7:       832.01 cm**-1
   8:       832.02 cm**-1
   9:      1036.59 cm**-1
  10:      1231.45 cm**-1
  11:      1231.46 cm**-1
  12:      1419.10 cm**-1
  13:      1436.53 cm**-1
  14:      1521.11 cm**-1
  15:      1521.15 cm**-1
  16:      1523.07 cm**-1
  17:      1523.10 cm**-1
  18:      3065.05 cm**-1
  19:      3065.95 cm**-1
  20:      3142.09 cm**-1
  21:      3142.09 cm**-1
  22:      3163.89 cm**-1
  23:      3163.90 cm**-1

IR SPECTRUM
-----------

 Mode    freq (cm**-1)   T**2         TX         TY         TZ
-------------------------------------------------------------------
   6:       324.66    0.000003  ( -0.001808   0.000003  -0.000000)
   7:       832.01    3.452416  ( -0.016752  -1.857992  -0.000324)
   8:       832.02    3.453935  (  1.858401  -0.016746  -0.000004)
   9:      1036.59    0.000000  (  0.000000   0.000000  -0.000000)
  10:      1231.45    0.000000  (  0.000000  -0.000000  -0.000000)
  11:      1231.46    0.000000  (  0.000000  -0.000000   0.000000)
  12:      1419.10    1.265537  ( -0.000001  -0.000083  -1.124961)
  13:      1436.53    0.000000  ( -0.000001  -0.000000   0.000000)
  14:      1521.11    8.820337  (  2.969905  -0.000507  -0.000000)
  15:      1521.15    8.811336  (  0.000507   2.968389   0.000649)
  16:      1523.07    0.000000  ( -0.000002  -0.000021   0.000000)
  17:      1523.10    0.000000  ( -0.000028   0.000002   0.000000)
  18:      3065.05    0.000000  ( -0.000001   0.000000  -0.000004)
  19:      3065.95   46.411475  ( -0.000014  -0.000048  -6.812597)
  20:      3142.09    0.000000  (  0.000000  -0.000002   0.000001)
  21:      3142.09    0.000000  (  0.000005   0.000000  -0.000000)
  22:      3163.89   44.425315  ( -0.106087  -6.664387  -0.000351)
  23:      3163.90   44.432774  ( -6.664947   0.106078   0.000021)

--------------------------
THERMOCHEMISTRY AT 298.15K
--------------------------

Temperature         ... 298.15 K
Pressure            ... 1.00 atm
Total Mass          ... 30.07 AMU

Throughout the following assumptions are being made:
  (1) The electronic state is orbitally nondegenerate
  (2) There are no thermally accessible electronically excited states
  (3) Hindered rotations indicated by low frequency modes are not
      treated as such but are treated as vibrations and this may
      cause some error
  (4) All equations used are the standard statistical mechanics
      equations for an ideal gas
  (5) All vibrations are strictly harmonic

freq.     324.66  E(vib)   ...       0.24
freq.     832.01  E(vib)   ...       0.04
freq.     832.02  E(vib)   ...       0.04
freq.    1036.59  E(vib)   ...       0.02
freq.    1231.45  E(vib)   ...       0.01
freq.    1231.46  E(vib)   ...       0.01
freq.    1419.10  E(vib)   ...       0.00
freq.    1436.53  E(vib)   ...       0.00
freq.    1521.11  E(vib)   ...       0.00
freq.    1521.15  E(vib)   ...       0.00
freq.    1523.07  E(vib)   ...       0.00
freq.    1523.10  E(vib)   ...       0.00
freq.    3065.05  E(vib)   ...       0.00
freq.    3065.95  E(vib)   ...       0.00
freq.    3142.09  E(vib)   ...       0.00
freq.    3142.09  E(vib)   ...       0.00
freq.    3163.89  E(vib)   ...       0.00
freq.    3163.90  E(vib)   ...       0.00

------------
INNER ENERGY
------------

The inner energy is: U= E(el) + E(ZPE) + E(vib) + E(rot) + E(trans)
    E(el)   - is the total energy from the electronic structure calculation
              = E(kin-el) + E(nuc-el) + E(el-el) + E(nuc-nuc)
    E(ZPE)  - the the zero temperature vibrational energy from the frequency calculation
    E(vib)  - the the finite temperature correction to E(ZPE) due to population
              of excited vibrational states
    E(rot)  - is the rotational thermal energy
    E(trans)- is the translational thermal energy

Summary of contributions to the inner energy U:
Electronic energy                ...    -79.67470274 Eh
Zero point energy                ...      0.07557874 Eh      47.43 kcal/mol
Thermal vibrational correction   ...      0.00062229 Eh       0.39 kcal/mol
Thermal rotational correction    ...      0.00141627 Eh       0.89 kcal/mol
Thermal translational correction ...      0.00141627 Eh       0.89 kcal/mol
-----------------------------------------------------------------------
Total thermal energy                    -79.59566917 Eh

Summary of corrections to the electronic energy:
(perhaps to be used in another calculation)
Total thermal correction                  0.00345483 Eh       2.17 kcal/mol
Non-thermal (ZPE) correction              0.07557874 Eh      47.43 kcal/mol
-----------------------------------------------------------------------
Total correction                          0.07903357 Eh      49.59 kcal/mol

--------
ENTHALPY
--------

The enthalpy is H = U + kB*T
                kB is Boltzmann's constant
Total free energy                 ...    -79.59566917 Eh
Thermal Enthalpy correction       ...      0.00094421 Eh       0.59 kcal/mol
-----------------------------------------------------------------------
Total Enthalpy                    ...    -79.59472496 Eh

Note: Rotational entropy computed according to Herzberg
Infrared and Raman Spectra, Chapter V,1, Van Nostrand Reinhold, 1945
Point Group:  D3d, Symmetry Number:   6
Rotational constants in cm-1:     2.711215     0.674039     0.674039

Vibrational entropy computed according to the QRRHO of S. Grimme
Chem.Eur.J. 2012 18 9955

-------
ENTROPY
-------

The entropy contributions are T*S = T*(S(el)+S(vib)+S(rot)+S(trans))
     S(el)   - electronic entropy
     S(vib)  - vibrational entropy
     S(rot)  - rotational entropy
     S(trans)- translational entropy
The entropies will be listed as mutliplied by the temperature to get
units of energy

Electronic entropy                ...      0.00000000 Eh      0.00 kcal/mol
Vibrational entropy               ...      0.00089525 Eh      0.56 kcal/mol
Rotational entropy                ...      0.00772065 Eh      4.84 kcal/mol
Translational entropy             ...      0.01716939 Eh     10.77 kcal/mol
-----------------------------------------------------------------------
Final entropy term                ...      0.02578529 Eh     16.18 kcal/mol

In case the symmetry of your molecule has not been determined correctly
or in case you have a reason to use a different symmetry number we print
out the resulting rotational entropy values for sn=1,12 :
 --------------------------------------------------------
|  sn= 1 | S(rot)=       0.00941240 Eh      5.91 kcal/mol|
|  sn= 2 | S(rot)=       0.00875794 Eh      5.50 kcal/mol|
|  sn= 3 | S(rot)=       0.00837511 Eh      5.26 kcal/mol|
|  sn= 4 | S(rot)=       0.00810348 Eh      5.09 kcal/mol|
|  sn= 5 | S(rot)=       0.00789280 Eh      4.95 kcal/mol|
|  sn= 6 | S(rot)=       0.00772065 Eh      4.84 kcal/mol|
|  sn= 7 | S(rot)=       0.00757511 Eh      4.75 kcal/mol|
|  sn= 8 | S(rot)=       0.00744903 Eh      4.67 kcal/mol|
|  sn= 9 | S(rot)=       0.00733782 Eh      4.60 kcal/mol|
|  sn=10 | S(rot)=       0.00723834 Eh      4.54 kcal/mol|
|  sn=11 | S(rot)=       0.00714835 Eh      4.49 kcal/mol|
|  sn=12 | S(rot)=       0.00706620 Eh      4.43 kcal/mol|
 --------------------------------------------------------

-------------------
GIBBS FREE ENERGY
-------------------

The Gibbs free energy is G = H - T*S

Total enthalpy                    ...    -79.59472496 Eh
Total entropy correction          ...     -0.02578529 Eh    -16.18 kcal/mol
-----------------------------------------------------------------------
Final Gibbs free energy         ...    -79.62051025 Eh

For completeness - the Gibbs free energy minus the electronic energy
G-E(el)                           ...      0.05419249 Eh     34.01 kcal/mol

                             ****ORCA TERMINATED NORMALLY****
TOTAL RUN TIME: 0 days 0 hours 43 minutes 27 seconds 129 msec
