                         Program Version 4.2.1 -  RELEASE  -
|  1> ! DLPNO-CCSD(T) cc-pVTZ RIJCOSX AutoAux TightSCF Grid4 FinalGrid5 PrintBasis PrintMOs
|  2> %maxcore 1150
|  3>
|  4> * xyzfile 0 1 init.xyz
|  5>
|  6> %cpcm
|  7>  smd true
|  8>  smdsolvent "water"
|  9> end
| 10>
| 11>                          ****END OF INPUT****

CARTESIAN COORDINATES (ANGSTROEM)
---------------------------------
  Ar     0.000000    0.000000    0.000000

 Total Charge           Charge          ....    0
 Multiplicity           Mult            ....    1
 Number of Electrons    NEL             ....   18
 Basis Dimension        Dim             ....   34

ORBITAL ENERGIES
----------------

  NO   OCC          E(Eh)            E(eV)
   0   2.0000    -118.605290     -3227.4140
   1   2.0000     -12.317101      -335.1653
   2   2.0000      -9.566000      -260.3041
   3   2.0000      -9.565999      -260.3041
   4   2.0000      -9.565999      -260.3041
   5   2.0000      -1.272562       -34.6282
   6   2.0000      -0.586199       -15.9513
   7   2.0000      -0.586199       -15.9513
   8   2.0000      -0.586199       -15.9513
   9   0.0000       0.553898        15.0723
  10   0.0000       0.553898        15.0723
  11   0.0000       0.553898        15.0723
  12   0.0000       0.710746        19.3404
  13   0.0000       0.732828        19.9413

------------------
MOLECULAR ORBITALS
------------------
                      0         1         2         3         4         5
                 -118.60529 -12.31710  -9.56600  -9.56600  -9.56600  -1.27256
                   2.00000   2.00000   2.00000   2.00000   2.00000   2.00000
                  --------  --------  --------  --------  --------  --------
  0Ar  1s         1.000023 -0.000001 -0.000000 -0.000000 -0.000000 -0.000000
  0Ar  2s        -0.000006 -0.932658 -0.000000  0.000000 -0.000000  0.000000
  0Ar  3s        -0.000003 -0.000000 -0.000000 -0.000000 -0.000000  0.648812
  0Ar  4s        -0.000144 -0.087906  0.000000  0.000000  0.000000  0.070492
  0Ar  5s        -0.000022 -0.002329  0.000000  0.000000  0.000000  0.395996
  0Ar  1pz        0.000000 -0.000000  0.099060 -0.967719 -0.001149  0.000000
  0Ar  1px        0.000000  0.000000 -0.000190 -0.001174  0.972776  0.000000
  0Ar  1py        0.000000 -0.000000 -0.967720 -0.099060 -0.000309  0.000000
  0Ar  2pz        0.000000 -0.000000 -0.000000  0.000002  0.000000 -0.000000
  0Ar  2px       -0.000000 -0.000000  0.000000  0.000000 -0.000002  0.000000
  0Ar  2py        0.000000 -0.000000  0.000002  0.000000  0.000000 -0.000000
  0Ar  3pz       -0.000000  0.000000  0.005772 -0.056382 -0.000067 -0.000000
  0Ar  3px       -0.000000 -0.000000 -0.000011 -0.000068  0.056676  0.000000
  0Ar  3py       -0.000000  0.000000 -0.056382 -0.005771 -0.000018 -0.000000
  0Ar  4pz       -0.000000  0.000000  0.000167 -0.001636 -0.000002 -0.000000
  0Ar  4px        0.000000  0.000000 -0.000000 -0.000002  0.001644 -0.000000
  0Ar  4py       -0.000000  0.000000 -0.001636 -0.000167 -0.000001 -0.000000
  0Ar  1dz2      -0.000000  0.000000 -0.000000 -0.000000 -0.000000 -0.000000
  0Ar  1dxz      -0.000000  0.000000  0.000000 -0.000000 -0.000000  0.000000
  0Ar  1dyz       0.000000  0.000000 -0.000000 -0.000000 -0.000000 -0.000000
  0Ar  1dx2y2    -0.000000  0.000000  0.000000  0.000000  0.000000 -0.000000
  0Ar  1dxy       0.000000 -0.000000 -0.000000  0.000000 -0.000000 -0.000000
  0Ar  2dz2       0.000000 -0.000000  0.000000  0.000000  0.000000 -0.000000
  0Ar  2dxz       0.000000 -0.000000 -0.000000 -0.000000  0.000000 -0.000000
  0Ar  2dyz      -0.000000 -0.000000  0.000000  0.000000  0.000000 -0.000000
  0Ar  2dx2y2     0.000000 -0.000000 -0.000000 -0.000000 -0.000000 -0.000000
  0Ar  2dxy       0.000000 -0.000000 -0.000000 -0.000000  0.000000 -0.000000
  0Ar  1f0       -0.000000 -0.000000 -0.000000  0.000001  0.000000 -0.000000
  0Ar  1f+1       0.000000 -0.000000 -0.000000 -0.000000  0.000001  0.000000
  0Ar  1f-1      -0.000000 -0.000000 -0.000001 -0.000000 -0.000000 -0.000000
  0Ar  1f+2       0.000000  0.000000 -0.000000  0.000000 -0.000000  0.000000
  0Ar  1f-2       0.000000  0.000000  0.000000  0.000000 -0.000000 -0.000000
  0Ar  1f+3       0.000000 -0.000000 -0.000000 -0.000000  0.000001  0.000000
  0Ar  1f-3      -0.000000  0.000000  0.000001  0.000000  0.000000 -0.000000
                      6         7         8         9        10        11
                  -0.58620  -0.58620  -0.58620   0.55390   0.55390   0.55390
                   2.00000   2.00000   2.00000   0.00000   0.00000   0.00000
                  --------  --------  --------  --------  --------  --------
  0Ar  1s        -0.000000 -0.000000  0.000000 -0.000000  0.000000 -0.000000
  0Ar  2s        -0.000000 -0.000000  0.000000 -0.000001  0.000000 -0.000000
  0Ar  3s        -0.000000 -0.000000  0.000000 -0.000002  0.000001 -0.000000
  0Ar  4s        -0.000000 -0.000000  0.000000 -0.000000  0.000000 -0.000000
  0Ar  5s         0.000001  0.000000 -0.000001  0.000002 -0.000001  0.000000
  0Ar  1pz        0.000004 -0.000000  0.000030  0.041835 -0.402359  0.000983
  0Ar  1px       -0.000000 -0.000030 -0.000000  0.000010 -0.000987 -0.404528
  0Ar  1py       -0.000030  0.000000  0.000004  0.402361  0.041834 -0.000092
  0Ar  2pz       -0.083962  0.002184 -0.578322  0.120199 -1.156060  0.002824
  0Ar  2px        0.000488  0.584385  0.002136  0.000028 -0.002837 -1.162292
  0Ar  2py        0.578326 -0.000176 -0.083963  1.156063  0.120199 -0.000265
  0Ar  3pz       -0.040644  0.001057 -0.279948  0.005069 -0.048753  0.000119
  0Ar  3px        0.000236  0.282883  0.001034  0.000001 -0.000120 -0.049016
  0Ar  3py        0.279950 -0.000085 -0.040644  0.048753  0.005069 -0.000011
  0Ar  4pz       -0.046712  0.001215 -0.321749 -0.143452  1.379701 -0.003371
  0Ar  4px        0.000271  0.325122  0.001188 -0.000034  0.003385  1.387138
  0Ar  4py        0.321751 -0.000098 -0.046713 -1.379705 -0.143451  0.000316
  0Ar  1dz2       0.000000 -0.000000 -0.000000 -0.000000  0.000000 -0.000000
  0Ar  1dxz      -0.000000 -0.000000  0.000000 -0.000000 -0.000000 -0.000000
  0Ar  1dyz      -0.000000 -0.000000  0.000000 -0.000000  0.000001 -0.000000
  0Ar  1dx2y2    -0.000000 -0.000000  0.000000  0.000000 -0.000000  0.000000
  0Ar  1dxy       0.000000 -0.000000  0.000000  0.000000  0.000000  0.000000
  0Ar  2dz2      -0.000000  0.000000 -0.000000 -0.000000  0.000000 -0.000000
  0Ar  2dxz      -0.000000  0.000000  0.000000 -0.000000 -0.000000 -0.000000
  0Ar  2dyz      -0.000000 -0.000000  0.000000 -0.000000  0.000000 -0.000000
  0Ar  2dx2y2    -0.000000 -0.000000  0.000000  0.000000 -0.000000  0.000000
  0Ar  2dxy       0.000000  0.000000  0.000000  0.000000  0.000000 -0.000000
  0Ar  1f0       -0.000000  0.000000 -0.000001  0.000000 -0.000001  0.000000
  0Ar  1f+1      -0.000000 -0.000001 -0.000000 -0.000000  0.000000  0.000001
  0Ar  1f-1      -0.000001  0.000000  0.000000 -0.000001 -0.000000  0.000000
  0Ar  1f+2       0.000000  0.000000 -0.000000 -0.000000  0.000000 -0.000000
  0Ar  1f-2      -0.000000 -0.000000 -0.000000 -0.000000  0.000000  0.000000
  0Ar  1f+3      -0.000000 -0.000001 -0.000000 -0.000000  0.000000  0.000001
  0Ar  1f-3       0.000001 -0.000000 -0.000000  0.000001  0.000000 -0.000000
                     12        13        14        15        16        17
                   0.71075   0.73283   0.73283   0.73283   0.73283   0.73283
                   0.00000   0.00000   0.00000   0.00000   0.00000   0.00000
                  --------  --------  --------  --------  --------  --------
  0Ar  1s        -0.178045 -0.000000  0.000000 -0.000000 -0.000001 -0.000000
  0Ar  2s        -1.096068 -0.000002  0.000001 -0.000000 -0.000005 -0.000002
  0Ar  3s        -1.903830 -0.000003  0.000002 -0.000000 -0.000009 -0.000003
  0Ar  4s        -0.000418 -0.000000  0.000000 -0.000000 -0.000000 -0.000000
  0Ar  5s         1.966384  0.000003 -0.000002  0.000000  0.000009  0.000004
  0Ar  1pz       -0.000000 -0.000000  0.000000  0.000000 -0.000000  0.000000
  0Ar  1px        0.000000 -0.000000 -0.000000  0.000000 -0.000000 -0.000000
  0Ar  1py       -0.000000 -0.000000  0.000000 -0.000000 -0.000000  0.000000
  0Ar  2pz       -0.000001 -0.000001  0.000001  0.000000 -0.000000  0.000000
  0Ar  2px        0.000000 -0.000000 -0.000000  0.000000 -0.000000 -0.000000
  0Ar  2py       -0.000001 -0.000001  0.000000 -0.000000 -0.000000  0.000000
  0Ar  3pz       -0.000000 -0.000000  0.000000 -0.000000 -0.000000 -0.000000
  0Ar  3px        0.000000 -0.000000 -0.000000  0.000000 -0.000000 -0.000000
  0Ar  3py       -0.000000 -0.000000  0.000000 -0.000000 -0.000000  0.000000
  0Ar  4pz        0.000001  0.000001 -0.000001 -0.000000  0.000000 -0.000001
  0Ar  4px       -0.000000  0.000000  0.000000 -0.000000  0.000000  0.000000
  0Ar  4py        0.000001  0.000000 -0.000000  0.000000  0.000000 -0.000000
  0Ar  1dz2       0.000002 -0.026306  0.019602  0.000205 -0.706746  0.510570
  0Ar  1dxz       0.000000  0.002779  0.003430 -0.872483  0.000079  0.000470
  0Ar  1dyz       0.000002 -0.698547  0.520529 -0.000204  0.005840 -0.047891
  0Ar  1dx2y2     0.000004  0.028483 -0.020982 -0.000418 -0.511589 -0.705884
  0Ar  1dxy      -0.000000  0.521313  0.699614  0.004411  0.000113  0.000155
  0Ar  2dz2       0.000001 -0.005848  0.004358  0.000045 -0.157117  0.113505
  0Ar  2dxz       0.000000  0.000618  0.000763 -0.193964  0.000018  0.000105
  0Ar  2dyz       0.000000 -0.155296  0.115720 -0.000045  0.001298 -0.010647
  0Ar  2dx2y2     0.000001  0.006332 -0.004664 -0.000093 -0.113732 -0.156925
  0Ar  2dxy      -0.000000  0.115894  0.155533  0.000981  0.000025  0.000034
  0Ar  1f0       -0.000000 -0.000000  0.000000  0.000000  0.000000 -0.000000
  0Ar  1f+1       0.000000  0.000000  0.000000  0.000000  0.000000 -0.000000
  0Ar  1f-1      -0.000000  0.000000 -0.000000  0.000000  0.000000 -0.000000
  0Ar  1f+2       0.000000 -0.000000  0.000000  0.000000  0.000000  0.000000
  0Ar  1f-2       0.000000 -0.000000 -0.000000  0.000000  0.000000 -0.000000
  0Ar  1f+3       0.000000 -0.000000 -0.000000 -0.000000  0.000000 -0.000000
  0Ar  1f-3      -0.000000 -0.000000  0.000000 -0.000000 -0.000000 -0.000000
                     18        19        20        21        22        23
                   2.55128   2.55128   2.55128   2.55129   2.55129   2.91231
                   0.00000   0.00000   0.00000   0.00000   0.00000   0.00000
                  --------  --------  --------  --------  --------  --------
  0Ar  1s        -0.000000 -0.000000 -0.000000  0.000000  0.000000  0.000000
  0Ar  2s        -0.000000 -0.000000 -0.000000  0.000000  0.000001  0.000000
  0Ar  3s        -0.000000 -0.000000 -0.000000  0.000000  0.000000  0.000000
  0Ar  4s         0.000000  0.000000  0.000000 -0.000000 -0.000001 -0.000000
  0Ar  5s         0.000000  0.000000 -0.000000 -0.000000 -0.000000 -0.000000
  0Ar  1pz        0.000000 -0.000007 -0.000000  0.000005  0.000004 -0.117881
  0Ar  1px       -0.000003 -0.000000 -0.000008 -0.000000 -0.000000  0.000178
  0Ar  1py       -0.000000 -0.000001  0.000000  0.000006  0.000001 -1.623492
  0Ar  2pz        0.000000 -0.000010 -0.000000  0.000006  0.000006 -0.152933
  0Ar  2px       -0.000003 -0.000000 -0.000010 -0.000000 -0.000000  0.000230
  0Ar  2py       -0.000000 -0.000002  0.000000  0.000008  0.000001 -2.106228
  0Ar  3pz       -0.000000  0.000009  0.000000 -0.000006 -0.000005  0.141136
  0Ar  3px        0.000003  0.000000  0.000010  0.000000  0.000000 -0.000213
  0Ar  3py        0.000000  0.000002 -0.000000 -0.000008 -0.000001  1.943754
  0Ar  4pz       -0.000000  0.000003  0.000000 -0.000002 -0.000002  0.053711
  0Ar  4px        0.000001  0.000000  0.000004  0.000000  0.000000 -0.000081
  0Ar  4py        0.000000  0.000001 -0.000000 -0.000003 -0.000000  0.739718
  0Ar  1dz2       0.000002 -0.011465 -0.000079  0.885169  0.031250  0.000004
  0Ar  1dxz      -0.229586  0.000932  0.855525  0.000086  0.000080  0.000000
  0Ar  1dyz      -0.000671 -0.885686  0.000786 -0.011180 -0.008269  0.000001
  0Ar  1dx2y2     0.000091  0.007869  0.000095  0.031353 -0.885205 -0.000001
  0Ar  1dxy       0.855526 -0.000445  0.229587  0.000009  0.000109 -0.000000
  0Ar  2dz2      -0.000003  0.015895  0.000109 -1.227244 -0.043326 -0.000005
  0Ar  2dxz       0.318310 -0.001292 -1.186143 -0.000119 -0.000110 -0.000000
  0Ar  2dyz       0.000930  1.227959 -0.001090  0.015500  0.011465 -0.000001
  0Ar  2dx2y2    -0.000127 -0.010910 -0.000132 -0.043470  1.227294  0.000001
  0Ar  2dxy      -1.186143  0.000617 -0.318311 -0.000012 -0.000152  0.000000
  0Ar  1f0       -0.000000  0.000000 -0.000000  0.000000 -0.000000  0.000030
  0Ar  1f+1      -0.000000 -0.000000  0.000000 -0.000000  0.000000  0.000000
  0Ar  1f-1       0.000000 -0.000000  0.000000  0.000000 -0.000000 -0.000258
  0Ar  1f+2      -0.000000  0.000000  0.000000  0.000000 -0.000000  0.000000
  0Ar  1f-2       0.000000  0.000000  0.000000  0.000000  0.000000  0.000000
  0Ar  1f+3       0.000000 -0.000000 -0.000000  0.000000  0.000000  0.000000
  0Ar  1f-3       0.000000  0.000000 -0.000000 -0.000000  0.000000  0.000325
                     24        25        26        27        28        29
                   2.91231   2.91231   2.92840   2.92840   2.92840   2.92840
                   0.00000   0.00000   0.00000   0.00000   0.00000   0.00000
                  --------  --------  --------  --------  --------  --------
  0Ar  1s        -0.000000  0.000000 -0.000000  0.000000  0.000000 -0.000000
  0Ar  2s        -0.000000  0.000000 -0.000002  0.000000  0.000001 -0.000000
  0Ar  3s        -0.000000  0.000000 -0.000001  0.000000  0.000001 -0.000000
  0Ar  4s         0.000000 -0.000000  0.000001 -0.000000 -0.000001  0.000000
  0Ar  5s         0.000000 -0.000000  0.000000 -0.000000 -0.000000  0.000000
  0Ar  1pz        1.623492 -0.000140  0.000019 -0.000032  0.000037  0.000067
  0Ar  1px        0.000154  1.627766 -0.000074  0.000075 -0.000045 -0.000532
  0Ar  1py       -0.117881  0.000188  0.000036 -0.000117 -0.000501  0.000017
  0Ar  2pz        2.106228 -0.000182  0.000025 -0.000041  0.000048  0.000086
  0Ar  2px        0.000199  2.111773 -0.000096  0.000097 -0.000058 -0.000688
  0Ar  2py       -0.152933  0.000244  0.000047 -0.000151 -0.000648  0.000022
  0Ar  3pz       -1.943754  0.000168 -0.000023  0.000038 -0.000044 -0.000080
  0Ar  3px       -0.000184 -1.948871  0.000089 -0.000090  0.000054  0.000636
  0Ar  3py        0.141136 -0.000225 -0.000043  0.000140  0.000599 -0.000021
  0Ar  4pz       -0.739718  0.000064 -0.000009  0.000014 -0.000017 -0.000030
  0Ar  4px       -0.000070 -0.741665  0.000034 -0.000034  0.000020  0.000241
  0Ar  4py        0.053711 -0.000086 -0.000016  0.000053  0.000227 -0.000008
  0Ar  1dz2      -0.000002  0.000000  0.000000  0.000000 -0.000000 -0.000000
  0Ar  1dxz       0.000000  0.000004 -0.000000 -0.000000 -0.000000 -0.000000
  0Ar  1dyz      -0.000004 -0.000000  0.000000 -0.000000 -0.000000  0.000000
  0Ar  1dx2y2     0.000002 -0.000000 -0.000000  0.000000 -0.000000 -0.000000
  0Ar  1dxy      -0.000000  0.000002 -0.000000  0.000000 -0.000000  0.000000
  0Ar  2dz2       0.000003 -0.000000 -0.000000 -0.000000  0.000000  0.000000
  0Ar  2dxz      -0.000000 -0.000006  0.000000  0.000000  0.000000  0.000000
  0Ar  2dyz       0.000006  0.000000 -0.000000  0.000000  0.000000 -0.000000
  0Ar  2dx2y2    -0.000003  0.000000  0.000000 -0.000000  0.000000  0.000000
  0Ar  2dxy       0.000000 -0.000003  0.000000 -0.000000  0.000000 -0.000000
  0Ar  1f0       -0.000433  0.000000  0.020344 -0.035893  0.051256  0.082031
  0Ar  1f+1       0.000000  0.000261 -0.085297  0.604890 -0.139787  0.757952
  0Ar  1f-1      -0.000018  0.000000 -0.689658 -0.011056  0.712499  0.068891
  0Ar  1f+2      -0.000010  0.000000  0.199431 -0.390205  0.085357  0.515786
  0Ar  1f-2      -0.000000 -0.000002  0.455072  0.284288  0.534300 -0.052415
  0Ar  1f+3       0.000000  0.000346  0.198766 -0.588962  0.188218  0.370824
  0Ar  1f-3       0.000024 -0.000000 -0.479907 -0.229656 -0.376814  0.087985
                     30        31        32        33
                   2.92840   2.92840   2.92840   5.40669
                   0.00000   0.00000   0.00000   0.00000
                  --------  --------  --------  --------
  0Ar  1s        -0.000000 -0.000000  0.000000  0.860161
  0Ar  2s        -0.000000 -0.000000  0.000001  4.321988
  0Ar  3s        -0.000000 -0.000000  0.000001  3.521393
  0Ar  4s         0.000000  0.000000 -0.000001 -3.804759
  0Ar  5s         0.000000  0.000000 -0.000000 -1.395055
  0Ar  1pz        0.000164  0.000334  0.000596  0.000000
  0Ar  1px        0.000109  0.000397 -0.000183 -0.000000
  0Ar  1py       -0.000415  0.000135  0.000057  0.000000
  0Ar  2pz        0.000212  0.000432  0.000771  0.000000
  0Ar  2px        0.000141  0.000513 -0.000237 -0.000000
  0Ar  2py       -0.000537  0.000175  0.000073  0.000000
  0Ar  3pz       -0.000196 -0.000399 -0.000713 -0.000000
  0Ar  3px       -0.000130 -0.000475  0.000220  0.000000
  0Ar  3py        0.000497 -0.000162 -0.000068 -0.000000
  0Ar  4pz       -0.000074 -0.000152 -0.000271 -0.000000
  0Ar  4px       -0.000049 -0.000180  0.000083  0.000000
  0Ar  4py        0.000188 -0.000061 -0.000026 -0.000000
  0Ar  1dz2      -0.000000 -0.000000 -0.000000  0.000000
  0Ar  1dxz       0.000000 -0.000000  0.000000  0.000000
  0Ar  1dyz      -0.000000  0.000000  0.000000 -0.000000
  0Ar  1dx2y2    -0.000000 -0.000000  0.000000  0.000000
  0Ar  1dxy       0.000000  0.000000 -0.000000  0.000000
  0Ar  2dz2       0.000000  0.000000  0.000000  0.000000
  0Ar  2dxz      -0.000000  0.000000 -0.000000 -0.000000
  0Ar  2dyz      -0.000000 -0.000000 -0.000000  0.000000
  0Ar  2dx2y2     0.000000  0.000000 -0.000000 -0.000000
  0Ar  2dxy      -0.000000 -0.000000  0.000000 -0.000000
  0Ar  1f0        0.226682  0.458696  0.852734 -0.000000
  0Ar  1f+1      -0.024657 -0.168948  0.060419  0.000000
  0Ar  1f-1       0.093509 -0.005328 -0.055458 -0.000000
  0Ar  1f+2       0.173287  0.567507 -0.427264  0.000000
  0Ar  1f-2      -0.615857  0.209672  0.024964 -0.000000
  0Ar  1f+3      -0.177694 -0.575047  0.280044  0.000000
  0Ar  1f-3      -0.705960  0.253615  0.067211 -0.000000

MULLIKEN ATOMIC CHARGES
-----------------------
   0 Ar:   -0.000000
Sum of atomic charges:   -0.0000000

LOEWDIN ATOMIC CHARGES
----------------------
   0 Ar:    0.000000

E(0)                                       ...   -526.813518353
E(0)                                       ...   -526.813518353
E(CORR)(strong-pairs)                      ...     -0.223836505
E(CORR)(weak-pairs)                        ...      0.000000000
E(CORR)(corrected)                         ...     -0.223836505
E(TOT)                                     ...   -527.037354858
E(CCSD(T))                                 ...   -527.043553824
FINAL SINGLE POINT ENERGY      -527.043553824045

DIPOLE MOMENT
-------------
                                X             Y             Z
Electronic contribution:     -0.00000      -0.00000      -0.00000
Nuclear contribution   :      0.00000       0.00000       0.00000
                        -----------------------------------------
Total Dipole Moment    :     -0.00000      -0.00000      -0.00000
                        -----------------------------------------
Magnitude (a.u.)       :      0.00000
Magnitude (Debye)      :      0.00000

Rotational constants in cm-1:     0.000000     0.000000     0.000000
Rotational constants in MHz :     0.000000     0.000000     0.000000

                             ****ORCA TERMINATED NORMALLY****
TOTAL RUN TIME: 0 days 0 hours 0 minutes 7 seconds 197 msec
