                         Program Version 4.2.1 -  RELEASE  -
|  1> ! B97-3c Opt Freq TightOpt TightSCF
|  2>
|  3> %pal
|  4>  nprocs 4
|  5> end
|  6>
|  7> *xyz 0 1
|  8> C       -5.7493004653      1.2621841579      0.0000000000
|  9> C       -4.4475837827      1.7670093825      0.0000000000
| 10> C       -5.9623576467     -0.1153197465     -0.0000000000
| 11> C       -4.8739796662     -0.9898185747     -0.0000000000
| 12> C       -3.5681317919     -0.4884727232      0.0000000000
| 13> C       -3.3542164932      0.8945792686      0.0000000000
| 14> H       -6.5966223655      1.9442824386     -0.0000000000
| 15> H       -4.2912491539      2.8432121628      0.0000000000
| 16> H       -6.9761558376     -0.5095604031     -0.0000000000
| 17> H       -5.0500825927     -2.0629638116     -0.0000000000
| 18> Cl      -2.2693449359     -1.6281105782      0.0000000000
| 19> Cl      -1.7718213864      1.5885875278      0.0000000000
| 20> *
| 21>
| 22>                          ****END OF INPUT****
 Total Charge           Charge          ....    0
 Multiplicity           Mult            ....    1
 Number of Electrons    NEL             ....   74
Dispersion correction           -0.035906839
FINAL SINGLE POINT ENERGY     -1151.220915665446
Dispersion correction            ... done
Dispersion correction           -0.036025541
FINAL SINGLE POINT ENERGY     -1151.221954637577
Dispersion correction            ... done
Dispersion correction           -0.036055795
FINAL SINGLE POINT ENERGY     -1151.222101697394
Dispersion correction            ... done
FINAL SINGLE POINT ENERGY     -1151.222116738576
FINAL SINGLE POINT ENERGY     -1151.222121587098
Dispersion correction           -0.036046119
FINAL SINGLE POINT ENERGY     -1151.222122041695
Dispersion correction            ... done
Dispersion correction           -0.036047222
FINAL SINGLE POINT ENERGY     -1151.222122068337
Dispersion correction            ... done
                    ***********************HURRAY********************

CARTESIAN COORDINATES (ANGSTROEM)
---------------------------------
  C     -5.751409    1.259130    0.000000
  C     -4.460654    1.760241    0.000000
  C     -5.963541   -0.111787   -0.000000
  C     -4.884450   -0.979392   -0.000000
  C     -3.588195   -0.482247   -0.000000
  C     -3.375131    0.894763   -0.000000
  H     -6.588450    1.943279    0.000000
  H     -4.279662    2.824893    0.000000
  H     -6.968022   -0.511097   -0.000000
  H     -5.033353   -2.048977   -0.000000
  Cl    -2.253947   -1.605080    0.000000
  Cl    -1.764031    1.561883   -0.000000

 Multiplicity           Mult            ....    1
 Number of Electrons    NEL             ....   74
 Basis Dimension        Dim             ....  170

ORBITAL ENERGIES
----------------

  NO   OCC          E(Eh)            E(eV)
   0   2.0000    -100.648955     -2738.7973
   1   2.0000    -100.648922     -2738.7964
   2   2.0000      -9.973937      -271.4046
   3   2.0000      -9.973563      -271.3944
   4   2.0000      -9.919381      -269.9201
   5   2.0000      -9.919343      -269.9191
   6   2.0000      -9.915193      -269.8061
   7   2.0000      -9.914793      -269.7952
   8   2.0000      -9.235536      -251.3117
   9   2.0000      -9.235496      -251.3106
  10   2.0000      -7.072098      -192.4416
  11   2.0000      -7.072052      -192.4403
  12   2.0000      -7.058953      -192.0839
  13   2.0000      -7.058917      -192.0829
  14   2.0000      -7.058097      -192.0606
  15   2.0000      -7.058066      -192.0597
  16   2.0000      -0.848294       -23.0833
  17   2.0000      -0.791878       -21.5481
  18   2.0000      -0.777628       -21.1603
  19   2.0000      -0.695583       -18.9278
  20   2.0000      -0.677328       -18.4310
  21   2.0000      -0.576972       -15.7002
  22   2.0000      -0.557211       -15.1625
  23   2.0000      -0.485842       -13.2204
  24   2.0000      -0.446862       -12.1597
  25   2.0000      -0.433538       -11.7972
  26   2.0000      -0.406048       -11.0491
  27   2.0000      -0.403989       -10.9931
  28   2.0000      -0.381437       -10.3794
  29   2.0000      -0.345888        -9.4121
  30   2.0000      -0.340824        -9.2743
  31   2.0000      -0.312211        -8.4957
  32   2.0000      -0.305755        -8.3200
  33   2.0000      -0.290485        -7.9045
  34   2.0000      -0.271330        -7.3833
  35   2.0000      -0.239984        -6.5303
  36   2.0000      -0.226465        -6.1624
  37   0.0000      -0.057412        -1.5623
  38   0.0000      -0.055115        -1.4998
  39   0.0000      -0.030727        -0.8361
  40   0.0000       0.029720         0.8087
  41   0.0000       0.044946         1.2230

MULLIKEN ATOMIC CHARGES
-----------------------
   0 C :   -0.157980
   1 C :   -0.119911
   2 C :   -0.152714
   3 C :   -0.119066
   4 C :    0.017592
   5 C :    0.018784
   6 H :    0.172337
   7 H :    0.186965
   8 H :    0.169435
   9 H :    0.188804
  10 Cl:   -0.102163
  11 Cl:   -0.102083
Sum of atomic charges:   -0.0000000

LOEWDIN ATOMIC CHARGES
----------------------
   0 C :   -0.156204
   1 C :   -0.174000
   2 C :   -0.155861
   3 C :   -0.173981
   4 C :   -0.225725
   5 C :   -0.225780
   6 H :    0.170961
   7 H :    0.177677
   8 H :    0.170815
   9 H :    0.177640
  10 Cl:    0.207212
  11 Cl:    0.207247

  Mayer bond orders larger than 0.100000
B(  0-C ,  1-C ) :   1.5310 B(  0-C ,  2-C ) :   1.5005 B(  0-C ,  6-H ) :   0.9110
B(  1-C ,  5-C ) :   1.3812 B(  1-C ,  7-H ) :   0.8924 B(  2-C ,  3-C ) :   1.5320
B(  2-C ,  8-H ) :   0.9105 B(  3-C ,  4-C ) :   1.3833 B(  3-C ,  9-H ) :   0.8906
B(  4-C ,  5-C ) :   1.1029 B(  4-C , 10-Cl) :   1.1152 B(  5-C , 11-Cl) :   1.1166

Dispersion correction           -0.036047477
FINAL SINGLE POINT ENERGY     -1151.222122066185

DIPOLE MOMENT
-------------
                                X             Y             Z
Electronic contribution:     11.43189      -1.76854       0.00000
Nuclear contribution   :    -12.41392       1.92021      -0.00000
                        -----------------------------------------
Total Dipole Moment    :     -0.98203       0.15167      -0.00000
                        -----------------------------------------
Magnitude (a.u.)       :      0.99367
Magnitude (Debye)      :      2.52571

Dispersion correction in the Hessian             ... done   (      0.6 sec)

VIBRATIONAL FREQUENCIES
-----------------------

Scaling factor for frequencies =  1.000000000  (already applied!)

   0:         0.00 cm**-1
   1:         0.00 cm**-1
   2:         0.00 cm**-1
   3:         0.00 cm**-1
   4:         0.00 cm**-1
   5:         0.00 cm**-1
   6:       131.28 cm**-1
   7:       199.13 cm**-1
   8:       225.67 cm**-1
   9:       337.13 cm**-1
  10:       424.91 cm**-1
  11:       433.11 cm**-1
  12:       473.90 cm**-1
  13:       500.15 cm**-1
  14:       633.44 cm**-1
  15:       671.39 cm**-1
  16:       737.44 cm**-1
  17:       746.47 cm**-1
  18:       830.10 cm**-1
  19:       890.93 cm**-1
  20:       909.79 cm**-1
  21:      1045.02 cm**-1
  22:      1051.97 cm**-1
  23:      1130.07 cm**-1
  24:      1143.53 cm**-1
  25:      1183.07 cm**-1
  26:      1272.44 cm**-1
  27:      1327.75 cm**-1
  28:      1456.40 cm**-1
  29:      1482.09 cm**-1
  30:      1596.23 cm**-1
  31:      1603.47 cm**-1
  32:      3138.17 cm**-1
  33:      3148.59 cm**-1
  34:      3159.63 cm**-1
  35:      3163.40 cm**-1

IR SPECTRUM
-----------

 Mode    freq (cm**-1)   T**2         TX         TY         TZ
-------------------------------------------------------------------
   6:       131.28    0.000007  (  0.000000  -0.000003  -0.002611)
   7:       199.13    0.032282  (  0.177777  -0.026019   0.000000)
   8:       225.67    1.512808  ( -0.000004  -0.000000   1.229962)
   9:       337.13    0.508125  (  0.107943   0.704608  -0.000000)
  10:       424.91    0.985355  (  0.144866   0.982023  -0.000000)
  11:       433.11    5.631379  (  0.000001   0.000001   2.373053)
  12:       473.90    9.589169  (  3.059919  -0.475465   0.000000)
  13:       500.15    0.000201  (  0.000002   0.000008  -0.014167)
  14:       633.44    0.000019  ( -0.000013  -0.000029   0.004339)
  15:       671.39   16.465427  ( -4.008604   0.629696  -0.000001)
  16:       737.44   65.000545  (  0.000005  -0.000001  -8.062292)
  17:       746.47   23.400540  (  0.743640   4.779910  -0.000002)
  18:       830.10    0.001478  (  0.000001   0.000007  -0.038443)
  19:       890.93    1.141179  (  0.000002   0.000001   1.068260)
  20:       909.79    0.000908  ( -0.000001   0.000004   0.030140)
  21:      1045.02   39.551232  ( -0.939717  -6.218373   0.000000)
  22:      1051.97   13.001621  (  3.565893  -0.534815  -0.000000)
  23:      1130.07   53.709400  ( -7.242915   1.117845  -0.000000)
  24:      1143.53    0.970057  (  0.218068   0.960471   0.000000)
  25:      1183.07    0.206199  (  0.448822  -0.068982   0.000000)
  26:      1272.44    3.763128  ( -0.293568  -1.917536   0.000000)
  27:      1327.75    1.238015  ( -1.100860   0.161625  -0.000000)
  28:      1456.40   17.316119  ( -0.637894  -4.112081   0.000001)
  29:      1482.09   63.492790  ( -7.876901   1.203005  -0.000000)
  30:      1596.23    3.297732  ( -1.796009   0.268486  -0.000000)
  31:      1603.47    8.767001  ( -0.442212  -2.927704   0.000000)
  32:      3138.17    2.445686  (  0.001855   1.563868   0.000000)
  33:      3148.59   13.128854  (  3.588721  -0.499933  -0.000000)
  34:      3159.63    8.989790  ( -0.376757  -2.974533  -0.000000)
  35:      3163.40    6.608444  ( -2.560382   0.229977  -0.000000)

--------------------------
THERMOCHEMISTRY AT 298.15K
--------------------------

Temperature         ... 298.15 K
Pressure            ... 1.00 atm
Total Mass          ... 147.00 AMU

Throughout the following assumptions are being made:
  (1) The electronic state is orbitally nondegenerate
  (2) There are no thermally accessible electronically excited states
  (3) Hindered rotations indicated by low frequency modes are not
      treated as such but are treated as vibrations and this may
      cause some error
  (4) All equations used are the standard statistical mechanics
      equations for an ideal gas
  (5) All vibrations are strictly harmonic

freq.     131.28  E(vib)   ...       0.42
freq.     199.13  E(vib)   ...       0.35
freq.     225.67  E(vib)   ...       0.33
freq.     337.13  E(vib)   ...       0.24
freq.     424.91  E(vib)   ...       0.18
freq.     433.11  E(vib)   ...       0.17
freq.     473.90  E(vib)   ...       0.15
freq.     500.15  E(vib)   ...       0.14
freq.     633.44  E(vib)   ...       0.09
freq.     671.39  E(vib)   ...       0.08
freq.     737.44  E(vib)   ...       0.06
freq.     746.47  E(vib)   ...       0.06
freq.     830.10  E(vib)   ...       0.04
freq.     890.93  E(vib)   ...       0.04
freq.     909.79  E(vib)   ...       0.03
freq.    1045.02  E(vib)   ...       0.02
freq.    1051.97  E(vib)   ...       0.02
freq.    1130.07  E(vib)   ...       0.01
freq.    1143.53  E(vib)   ...       0.01
freq.    1183.07  E(vib)   ...       0.01
freq.    1272.44  E(vib)   ...       0.01
freq.    1327.75  E(vib)   ...       0.01
freq.    1456.40  E(vib)   ...       0.00
freq.    1482.09  E(vib)   ...       0.00
freq.    1596.23  E(vib)   ...       0.00
freq.    1603.47  E(vib)   ...       0.00
freq.    3138.17  E(vib)   ...       0.00
freq.    3148.59  E(vib)   ...       0.00
freq.    3159.63  E(vib)   ...       0.00
freq.    3163.40  E(vib)   ...       0.00

------------
INNER ENERGY
------------

The inner energy is: U= E(el) + E(ZPE) + E(vib) + E(rot) + E(trans)
    E(el)   - is the total energy from the electronic structure calculation
              = E(kin-el) + E(nuc-el) + E(el-el) + E(nuc-nuc)
    E(ZPE)  - the the zero temperature vibrational energy from the frequency calculation
    E(vib)  - the the finite temperature correction to E(ZPE) due to population
              of excited vibrational states
    E(rot)  - is the rotational thermal energy
    E(trans)- is the translational thermal energy

Summary of contributions to the inner energy U:
Electronic energy                ...  -1151.22212207 Eh
Zero point energy                ...      0.07984215 Eh      50.10 kcal/mol
Thermal vibrational correction   ...      0.00397002 Eh       2.49 kcal/mol
Thermal rotational correction    ...      0.00141627 Eh       0.89 kcal/mol
Thermal translational correction ...      0.00141627 Eh       0.89 kcal/mol
-----------------------------------------------------------------------
Total thermal energy                  -1151.13547735 Eh

Summary of corrections to the electronic energy:
(perhaps to be used in another calculation)
Total thermal correction                  0.00680256 Eh       4.27 kcal/mol
Non-thermal (ZPE) correction              0.07984215 Eh      50.10 kcal/mol
-----------------------------------------------------------------------
Total correction                          0.08664472 Eh      54.37 kcal/mol

--------
ENTHALPY
--------

The enthalpy is H = U + kB*T
                kB is Boltzmann's constant
Total free energy                 ...  -1151.13547735 Eh
Thermal Enthalpy correction       ...      0.00094421 Eh       0.59 kcal/mol
-----------------------------------------------------------------------
Total Enthalpy                    ...  -1151.13453314 Eh

Note: Rotational entropy computed according to Herzberg
Infrared and Raman Spectra, Chapter V,1, Van Nostrand Reinhold, 1945
Point Group:  Cs, Symmetry Number:   1
Rotational constants in cm-1:     0.063189     0.047380     0.027077

Vibrational entropy computed according to the QRRHO of S. Grimme
Chem.Eur.J. 2012 18 9955

-------
ENTROPY
-------

The entropy contributions are T*S = T*(S(el)+S(vib)+S(rot)+S(trans))
     S(el)   - electronic entropy
     S(vib)  - vibrational entropy
     S(rot)  - rotational entropy
     S(trans)- translational entropy
The entropies will be listed as mutliplied by the temperature to get
units of energy

Electronic entropy                ...      0.00000000 Eh      0.00 kcal/mol
Vibrational entropy               ...      0.00635259 Eh      3.99 kcal/mol
Rotational entropy                ...      0.01395803 Eh      8.76 kcal/mol
Translational entropy             ...      0.01941692 Eh     12.18 kcal/mol
-----------------------------------------------------------------------
Final entropy term                ...      0.03972753 Eh     24.93 kcal/mol

In case the symmetry of your molecule has not been determined correctly
or in case you have a reason to use a different symmetry number we print
out the resulting rotational entropy values for sn=1,12 :
 --------------------------------------------------------
|  sn= 1 | S(rot)=       0.01395803 Eh      8.76 kcal/mol|
|  sn= 2 | S(rot)=       0.01330357 Eh      8.35 kcal/mol|
|  sn= 3 | S(rot)=       0.01292074 Eh      8.11 kcal/mol|
|  sn= 4 | S(rot)=       0.01264912 Eh      7.94 kcal/mol|
|  sn= 5 | S(rot)=       0.01243843 Eh      7.81 kcal/mol|
|  sn= 6 | S(rot)=       0.01226629 Eh      7.70 kcal/mol|
|  sn= 7 | S(rot)=       0.01212074 Eh      7.61 kcal/mol|
|  sn= 8 | S(rot)=       0.01199466 Eh      7.53 kcal/mol|
|  sn= 9 | S(rot)=       0.01188345 Eh      7.46 kcal/mol|
|  sn=10 | S(rot)=       0.01178397 Eh      7.39 kcal/mol|
|  sn=11 | S(rot)=       0.01169398 Eh      7.34 kcal/mol|
|  sn=12 | S(rot)=       0.01161183 Eh      7.29 kcal/mol|
 --------------------------------------------------------

-------------------
GIBBS FREE ENERGY
-------------------

The Gibbs free energy is G = H - T*S

Total enthalpy                    ...  -1151.13453314 Eh
Total entropy correction          ...     -0.03972753 Eh    -24.93 kcal/mol
-----------------------------------------------------------------------
Final Gibbs free energy         ...  -1151.17426068 Eh

For completeness - the Gibbs free energy minus the electronic energy
G-E(el)                           ...      0.04786139 Eh     30.03 kcal/mol

                             ****ORCA TERMINATED NORMALLY****
TOTAL RUN TIME: 0 days 0 hours 1 minutes 52 seconds 622 msec
