                         Program Version 4.2.1 -  RELEASE  -
|  1> ! B97-3c Opt Freq TightOpt TightSCF
|  2>
|  3> %pal
|  4>  nprocs 4
|  5> end
|  6>
|  7> *xyz 0 1
|  8> C       -4.2688961647      1.0405524827      0.0000000000
|  9> C       -4.7129214845     -0.2824448812      0.0000000000
| 10> C       -3.7860036793     -1.3258280230     -0.0000000000
| 11> C       -2.4197490731     -1.0409186525      0.0000000000
| 12> C       -1.9873334873      0.2859186663      0.0000000000
| 13> C       -2.9067371244      1.3325497379      0.0000000000
| 14> Cl      -5.4162341731      2.3232409694      0.0000000000
| 15> H       -5.7769613790     -0.5057604586     -0.0000000000
| 16> Cl      -0.3014380975      0.6315065627      0.0000000000
| 17> H       -2.5657017350      2.3636373983      0.0000000000
| 18> H       -4.1274662901     -2.3582073460     -0.0000000000
| 19> H       -1.6987164144     -1.8546524230      0.0000000000
| 20> *
| 21>
| 22>                          ****END OF INPUT****
 Total Charge           Charge          ....    0
 Multiplicity           Mult            ....    1
 Number of Electrons    NEL             ....   74
Dispersion correction           -0.035089464
FINAL SINGLE POINT ENERGY     -1151.223578587059
Dispersion correction            ... done
Dispersion correction           -0.035119094
FINAL SINGLE POINT ENERGY     -1151.224723221699
Dispersion correction            ... done
Dispersion correction           -0.035114676
FINAL SINGLE POINT ENERGY     -1151.225029139066
Dispersion correction            ... done
FINAL SINGLE POINT ENERGY     -1151.225059741245
Dispersion correction           -0.035103487
FINAL SINGLE POINT ENERGY     -1151.225065732549
Dispersion correction            ... done
Dispersion correction           -0.035104838
FINAL SINGLE POINT ENERGY     -1151.225066213157
Dispersion correction            ... done
                    ***********************HURRAY********************

CARTESIAN COORDINATES (ANGSTROEM)
---------------------------------
  C     -4.262046    1.021801   -0.000000
  C     -4.714726   -0.288155    0.000000
  C     -3.782320   -1.314594   -0.000000
  C     -2.421755   -1.046409    0.000000
  C     -2.003916    0.275086    0.000000
  C     -2.909318    1.324660    0.000000
  Cl    -5.422879    2.335404   -0.000000
  H     -5.773761   -0.497092   -0.000000
  Cl    -0.288639    0.637120   -0.000000
  H     -2.570869    2.348608    0.000000
  H     -4.121739   -2.341082   -0.000000
  H     -1.696191   -1.845752   -0.000000

 Multiplicity           Mult            ....    1
 Number of Electrons    NEL             ....   74
 Basis Dimension        Dim             ....  170

ORBITAL ENERGIES
----------------

  NO   OCC          E(Eh)            E(eV)
   0   2.0000    -100.649593     -2738.8147
   1   2.0000    -100.649579     -2738.8143
   2   2.0000      -9.973923      -271.4042
   3   2.0000      -9.973916      -271.4041
   4   2.0000      -9.923133      -270.0222
   5   2.0000      -9.921519      -269.9783
   6   2.0000      -9.918434      -269.8943
   7   2.0000      -9.918400      -269.8934
   8   2.0000      -9.236157      -251.3286
   9   2.0000      -9.236144      -251.3283
  10   2.0000      -7.072465      -192.4515
  11   2.0000      -7.072462      -192.4515
  12   2.0000      -7.059609      -192.1017
  13   2.0000      -7.059589      -192.1012
  14   2.0000      -7.059031      -192.0860
  15   2.0000      -7.059011      -192.0855
  16   2.0000      -0.843551       -22.9542
  17   2.0000      -0.808577       -22.0025
  18   2.0000      -0.766272       -20.8513
  19   2.0000      -0.699962       -19.0469
  20   2.0000      -0.681052       -18.5324
  21   2.0000      -0.577384       -15.7114
  22   2.0000      -0.557480       -15.1698
  23   2.0000      -0.490552       -13.3486
  24   2.0000      -0.449342       -12.2272
  25   2.0000      -0.434823       -11.8321
  26   2.0000      -0.407314       -11.0836
  27   2.0000      -0.406623       -11.0648
  28   2.0000      -0.379450       -10.3254
  29   2.0000      -0.347560        -9.4576
  30   2.0000      -0.345598        -9.4042
  31   2.0000      -0.330055        -8.9813
  32   2.0000      -0.293386        -7.9834
  33   2.0000      -0.286679        -7.8009
  34   2.0000      -0.280227        -7.6254
  35   2.0000      -0.242154        -6.5893
  36   2.0000      -0.229511        -6.2453
  37   0.0000      -0.059722        -1.6251
  38   0.0000      -0.057532        -1.5655
  39   0.0000      -0.028840        -0.7848
  40   0.0000       0.015127         0.4116
  41   0.0000       0.049239         1.3399

MULLIKEN ATOMIC CHARGES
-----------------------
   0 C :   -0.022340
   1 C :   -0.122099
   2 C :   -0.138948
   3 C :   -0.128593
   4 C :   -0.020490
   5 C :   -0.083248
   6 Cl:   -0.128169
   7 H :    0.193594
   8 Cl:   -0.127775
   9 H :    0.212287
  10 H :    0.169848
  11 H :    0.195932
Sum of atomic charges:   -0.0000000

LOEWDIN ATOMIC CHARGES
----------------------
   0 C :   -0.190714
   1 C :   -0.184938
   2 C :   -0.141703
   3 C :   -0.185321
   4 C :   -0.190733
   5 C :   -0.202489
   6 Cl:    0.191258
   7 H :    0.177617
   8 Cl:    0.191314
   9 H :    0.185064
  10 H :    0.172867
  11 H :    0.177776

  Mayer bond orders larger than 0.100000
B(  0-C ,  1-C ) :   1.3503 B(  0-C ,  5-C ) :   1.3370 B(  0-C ,  6-Cl) :   1.0191
B(  1-C ,  2-C ) :   1.5077 B(  1-C ,  7-H ) :   0.8925 B(  2-C ,  3-C ) :   1.5051
B(  2-C , 10-H ) :   0.9151 B(  3-C ,  4-C ) :   1.3484 B(  3-C , 11-H ) :   0.8943
B(  4-C ,  5-C ) :   1.3393 B(  4-C ,  8-Cl) :   1.0203 B(  5-C ,  9-H ) :   0.8897

Dispersion correction           -0.035105860
FINAL SINGLE POINT ENERGY     -1151.225066267813

DIPOLE MOMENT
-------------
                                X             Y             Z
Electronic contribution:      2.08427       6.30128      -0.00000
Nuclear contribution   :     -2.29177      -6.92701       0.00000
                        -----------------------------------------
Total Dipole Moment    :     -0.20750      -0.62573       0.00000
                        -----------------------------------------
Magnitude (a.u.)       :      0.65924
Magnitude (Debye)      :      1.67566

Dispersion correction in the Hessian             ... done   (      0.6 sec)

VIBRATIONAL FREQUENCIES
-----------------------

Scaling factor for frequencies =  1.000000000  (already applied!)

   0:         0.00 cm**-1
   1:         0.00 cm**-1
   2:         0.00 cm**-1
   3:         0.00 cm**-1
   4:         0.00 cm**-1
   5:         0.00 cm**-1
   6:       160.24 cm**-1
   7:       195.51 cm**-1
   8:       195.92 cm**-1
   9:       367.58 cm**-1
  10:       393.88 cm**-1
  11:       426.90 cm**-1
  12:       428.44 cm**-1
  13:       527.55 cm**-1
  14:       609.33 cm**-1
  15:       674.37 cm**-1
  16:       752.21 cm**-1
  17:       779.24 cm**-1
  18:       835.81 cm**-1
  19:       855.01 cm**-1
  20:       903.45 cm**-1
  21:      1014.95 cm**-1
  22:      1089.57 cm**-1
  23:      1091.16 cm**-1
  24:      1121.33 cm**-1
  25:      1187.36 cm**-1
  26:      1293.04 cm**-1
  27:      1342.72 cm**-1
  28:      1431.97 cm**-1
  29:      1486.11 cm**-1
  30:      1598.61 cm**-1
  31:      1599.14 cm**-1
  32:      3142.34 cm**-1
  33:      3162.36 cm**-1
  34:      3167.28 cm**-1
  35:      3174.48 cm**-1

IR SPECTRUM
-----------

 Mode    freq (cm**-1)   T**2         TX         TY         TZ
-------------------------------------------------------------------
   6:       160.24    0.176818  (  0.000000   0.000002  -0.420497)
   7:       195.51    0.000011  ( -0.000004   0.000002   0.003301)
   8:       195.92    0.332324  (  0.180461   0.547501  -0.000000)
   9:       367.58    0.652104  (  0.767346  -0.251564   0.000000)
  10:       393.88    4.087708  ( -0.640895  -1.917540  -0.000000)
  11:       426.90    4.175587  (  0.000003  -0.000013   2.043425)
  12:       428.44    7.108317  (  2.531440  -0.836736  -0.000011)
  13:       527.55    0.000925  (  0.000012   0.000000  -0.030409)
  14:       609.33    8.504439  (  0.000003   0.000018  -2.916237)
  15:       674.37    2.197415  (  0.473938   1.404563  -0.000002)
  16:       752.21   51.647631  ( -0.000002   0.000006   7.186629)
  17:       779.24   97.147036  ( -9.357580   3.095599   0.000001)
  18:       835.81    9.636701  (  0.000001   0.000002   3.104304)
  19:       855.01    0.000051  ( -0.000004   0.000004  -0.007134)
  20:       903.45    0.019136  (  0.000001   0.000001   0.138333)
  21:      1014.95    2.945637  (  0.536079   1.630416  -0.000000)
  22:      1089.57   28.142994  ( -1.813441  -4.985421   0.000001)
  23:      1091.16   26.232408  ( -4.807629   1.766101  -0.000000)
  24:      1121.33   16.372609  ( -1.259706  -3.845224   0.000000)
  25:      1187.36    0.733486  (  0.813927  -0.266476   0.000000)
  26:      1293.04    2.155600  ( -1.393274   0.463021   0.000000)
  27:      1342.72    0.699407  ( -0.793207   0.265007   0.000000)
  28:      1431.97   10.061964  ( -0.995044  -3.011951   0.000000)
  29:      1486.11   75.398541  (  8.245957  -2.720795   0.000000)
  30:      1598.61   31.344859  (  1.910655   5.262533  -0.000000)
  31:      1599.14   88.350268  ( -8.894709   3.038818   0.000000)
  32:      3142.34    8.192757  (  0.917027   2.711424   0.000000)
  33:      3162.36    3.389389  (  1.671801  -0.771020  -0.000000)
  34:      3167.28    5.092211  (  0.849368   2.090642   0.000000)
  35:      3174.48    0.082992  ( -0.097848  -0.270958   0.000000)

--------------------------
THERMOCHEMISTRY AT 298.15K
--------------------------

Temperature         ... 298.15 K
Pressure            ... 1.00 atm
Total Mass          ... 147.00 AMU

Throughout the following assumptions are being made:
  (1) The electronic state is orbitally nondegenerate
  (2) There are no thermally accessible electronically excited states
  (3) Hindered rotations indicated by low frequency modes are not
      treated as such but are treated as vibrations and this may
      cause some error
  (4) All equations used are the standard statistical mechanics
      equations for an ideal gas
  (5) All vibrations are strictly harmonic

freq.     160.24  E(vib)   ...       0.39
freq.     195.51  E(vib)   ...       0.36
freq.     195.92  E(vib)   ...       0.36
freq.     367.58  E(vib)   ...       0.21
freq.     393.88  E(vib)   ...       0.20
freq.     426.90  E(vib)   ...       0.18
freq.     428.44  E(vib)   ...       0.18
freq.     527.55  E(vib)   ...       0.13
freq.     609.33  E(vib)   ...       0.10
freq.     674.37  E(vib)   ...       0.08
freq.     752.21  E(vib)   ...       0.06
freq.     779.24  E(vib)   ...       0.05
freq.     835.81  E(vib)   ...       0.04
freq.     855.01  E(vib)   ...       0.04
freq.     903.45  E(vib)   ...       0.03
freq.    1014.95  E(vib)   ...       0.02
freq.    1089.57  E(vib)   ...       0.02
freq.    1091.16  E(vib)   ...       0.02
freq.    1121.33  E(vib)   ...       0.01
freq.    1187.36  E(vib)   ...       0.01
freq.    1293.04  E(vib)   ...       0.01
freq.    1342.72  E(vib)   ...       0.01
freq.    1431.97  E(vib)   ...       0.00
freq.    1486.11  E(vib)   ...       0.00
freq.    1598.61  E(vib)   ...       0.00
freq.    1599.14  E(vib)   ...       0.00
freq.    3142.34  E(vib)   ...       0.00
freq.    3162.36  E(vib)   ...       0.00
freq.    3167.28  E(vib)   ...       0.00
freq.    3174.48  E(vib)   ...       0.00

------------
INNER ENERGY
------------

The inner energy is: U= E(el) + E(ZPE) + E(vib) + E(rot) + E(trans)
    E(el)   - is the total energy from the electronic structure calculation
              = E(kin-el) + E(nuc-el) + E(el-el) + E(nuc-nuc)
    E(ZPE)  - the the zero temperature vibrational energy from the frequency calculation
    E(vib)  - the the finite temperature correction to E(ZPE) due to population
              of excited vibrational states
    E(rot)  - is the rotational thermal energy
    E(trans)- is the translational thermal energy

Summary of contributions to the inner energy U:
Electronic energy                ...  -1151.22506627 Eh
Zero point energy                ...      0.07975370 Eh      50.05 kcal/mol
Thermal vibrational correction   ...      0.00399829 Eh       2.51 kcal/mol
Thermal rotational correction    ...      0.00141627 Eh       0.89 kcal/mol
Thermal translational correction ...      0.00141627 Eh       0.89 kcal/mol
-----------------------------------------------------------------------
Total thermal energy                  -1151.13848173 Eh

Summary of corrections to the electronic energy:
(perhaps to be used in another calculation)
Total thermal correction                  0.00683084 Eh       4.29 kcal/mol
Non-thermal (ZPE) correction              0.07975370 Eh      50.05 kcal/mol
-----------------------------------------------------------------------
Total correction                          0.08658454 Eh      54.33 kcal/mol

--------
ENTHALPY
--------

The enthalpy is H = U + kB*T
                kB is Boltzmann's constant
Total free energy                 ...  -1151.13848173 Eh
Thermal Enthalpy correction       ...      0.00094421 Eh       0.59 kcal/mol
-----------------------------------------------------------------------
Total Enthalpy                    ...  -1151.13753752 Eh

Note: Rotational entropy computed according to Herzberg
Infrared and Raman Spectra, Chapter V,1, Van Nostrand Reinhold, 1945
Point Group:  Cs, Symmetry Number:   1
Rotational constants in cm-1:     0.094165     0.028251     0.021732

Vibrational entropy computed according to the QRRHO of S. Grimme
Chem.Eur.J. 2012 18 9955

-------
ENTROPY
-------

The entropy contributions are T*S = T*(S(el)+S(vib)+S(rot)+S(trans))
     S(el)   - electronic entropy
     S(vib)  - vibrational entropy
     S(rot)  - rotational entropy
     S(trans)- translational entropy
The entropies will be listed as mutliplied by the temperature to get
units of energy

Electronic entropy                ...      0.00000000 Eh      0.00 kcal/mol
Vibrational entropy               ...      0.00638082 Eh      4.00 kcal/mol
Rotational entropy                ...      0.01411761 Eh      8.86 kcal/mol
Translational entropy             ...      0.01941692 Eh     12.18 kcal/mol
-----------------------------------------------------------------------
Final entropy term                ...      0.03991535 Eh     25.05 kcal/mol

In case the symmetry of your molecule has not been determined correctly
or in case you have a reason to use a different symmetry number we print
out the resulting rotational entropy values for sn=1,12 :
 --------------------------------------------------------
|  sn= 1 | S(rot)=       0.01411761 Eh      8.86 kcal/mol|
|  sn= 2 | S(rot)=       0.01346316 Eh      8.45 kcal/mol|
|  sn= 3 | S(rot)=       0.01308033 Eh      8.21 kcal/mol|
|  sn= 4 | S(rot)=       0.01280870 Eh      8.04 kcal/mol|
|  sn= 5 | S(rot)=       0.01259801 Eh      7.91 kcal/mol|
|  sn= 6 | S(rot)=       0.01242587 Eh      7.80 kcal/mol|
|  sn= 7 | S(rot)=       0.01228032 Eh      7.71 kcal/mol|
|  sn= 8 | S(rot)=       0.01215425 Eh      7.63 kcal/mol|
|  sn= 9 | S(rot)=       0.01204304 Eh      7.56 kcal/mol|
|  sn=10 | S(rot)=       0.01194356 Eh      7.49 kcal/mol|
|  sn=11 | S(rot)=       0.01185357 Eh      7.44 kcal/mol|
|  sn=12 | S(rot)=       0.01177141 Eh      7.39 kcal/mol|
 --------------------------------------------------------

-------------------
GIBBS FREE ENERGY
-------------------

The Gibbs free energy is G = H - T*S

Total enthalpy                    ...  -1151.13753752 Eh
Total entropy correction          ...     -0.03991535 Eh    -25.05 kcal/mol
-----------------------------------------------------------------------
Final Gibbs free energy         ...  -1151.17745287 Eh

For completeness - the Gibbs free energy minus the electronic energy
G-E(el)                           ...      0.04761339 Eh     29.88 kcal/mol

                             ****ORCA TERMINATED NORMALLY****
TOTAL RUN TIME: 0 days 0 hours 1 minutes 44 seconds 64 msec
