                         Program Version 4.2.1 -  RELEASE  -
|  1> ! B97-3c Opt Freq TightOpt TightSCF
|  2>
|  3> %pal
|  4>  nprocs 4
|  5> end
|  6>
|  7> *xyz 0 1
|  8> C        1.856873000      1.370646000     -0.904202000
|  9> C        2.290175000      2.521100000     -0.213196000
| 10> C        3.645716000      2.655661000      0.151729000
| 11> C        4.567894000      1.639866000     -0.174369000
| 12> C        2.779087000      0.354801000     -1.230293000
| 13> C        4.134617000      0.489470000     -0.865366000
| 14> H        1.567714000      3.317125000      0.042257000
| 15> H        5.629970000      1.745301000      0.111580000
| 16> H        4.857115000     -0.306505000     -1.120919000
| 17> H        0.794845000      1.265216000     -1.190139000
| 18> Cl       2.235423588     -1.089259933     -2.097482781
| 19> Cl       4.189360067      4.099631954      1.019080723
| 20> *
| 21>
| 22>                          ****END OF INPUT****
 Total Charge           Charge          ....    0
 Multiplicity           Mult            ....    1
 Number of Electrons    NEL             ....   74
Dispersion correction           -0.034552231
FINAL SINGLE POINT ENERGY     -1151.220045349011
Dispersion correction            ... done
Dispersion correction           -0.035012856
FINAL SINGLE POINT ENERGY     -1151.225017188820
Dispersion correction            ... done
Dispersion correction           -0.035099111
FINAL SINGLE POINT ENERGY     -1151.225141953071
Dispersion correction            ... done
Dispersion correction           -0.035096836
FINAL SINGLE POINT ENERGY     -1151.225145147580
Dispersion correction            ... done
Dispersion correction           -0.035096298
FINAL SINGLE POINT ENERGY     -1151.225146778099
Dispersion correction            ... done
                    ***********************HURRAY********************

CARTESIAN COORDINATES (ANGSTROEM)
---------------------------------
  C      1.874867    1.374856   -0.898017
  C      2.300776    2.505834   -0.218911
  C      3.635255    2.628014    0.134971
  C      4.549931    1.635653   -0.180535
  C      2.789542    0.382495   -1.213524
  C      4.124022    0.504674   -0.859642
  H      1.597988    3.285930    0.032784
  H      5.586891    1.742693    0.100855
  H      4.826811   -0.275424   -1.111336
  H      0.837907    1.267818   -1.179406
  Cl     2.251006   -1.047409   -2.072594
  Cl     4.173793    4.057919    0.994037

 Multiplicity           Mult            ....    1
 Number of Electrons    NEL             ....   74
 Basis Dimension        Dim             ....  170

ORBITAL ENERGIES
----------------

  NO   OCC          E(Eh)            E(eV)
   0   2.0000    -100.648652     -2738.7891
   1   2.0000    -100.648650     -2738.7890
   2   2.0000      -9.970296      -271.3056
   3   2.0000      -9.970286      -271.3053
   4   2.0000      -9.922819      -270.0136
   5   2.0000      -9.922800      -270.0131
   6   2.0000      -9.922405      -270.0024
   7   2.0000      -9.922401      -270.0022
   8   2.0000      -9.235237      -251.3036
   9   2.0000      -9.235234      -251.3035
  10   2.0000      -7.071592      -192.4278
  11   2.0000      -7.071591      -192.4278
  12   2.0000      -7.058635      -192.0752
  13   2.0000      -7.058633      -192.0752
  14   2.0000      -7.058079      -192.0601
  15   2.0000      -7.058077      -192.0600
  16   2.0000      -0.841992       -22.9118
  17   2.0000      -0.810412       -22.0524
  18   2.0000      -0.761254       -20.7148
  19   2.0000      -0.713745       -19.4220
  20   2.0000      -0.667587       -18.1660
  21   2.0000      -0.586558       -15.9610
  22   2.0000      -0.556326       -15.1384
  23   2.0000      -0.485073       -13.1995
  24   2.0000      -0.449963       -12.2441
  25   2.0000      -0.436555       -11.8793
  26   2.0000      -0.408097       -11.1049
  27   2.0000      -0.406224       -11.0539
  28   2.0000      -0.378390       -10.2965
  29   2.0000      -0.351055        -9.5527
  30   2.0000      -0.344863        -9.3842
  31   2.0000      -0.333376        -9.0716
  32   2.0000      -0.284846        -7.7510
  33   2.0000      -0.284753        -7.7485
  34   2.0000      -0.280191        -7.6244
  35   2.0000      -0.254938        -6.9372
  36   2.0000      -0.222666        -6.0590
  37   0.0000      -0.061097        -1.6625
  38   0.0000      -0.056826        -1.5463
  39   0.0000      -0.019587        -0.5330
  40   0.0000       0.001349         0.0367
  41   0.0000       0.061720         1.6795

MULLIKEN ATOMIC CHARGES
-----------------------
   0 C :   -0.116006
   1 C :   -0.114478
   2 C :   -0.020386
   3 C :   -0.116013
   4 C :   -0.020400
   5 C :   -0.114487
   6 H :    0.191047
   7 H :    0.192280
   8 H :    0.191048
   9 H :    0.192281
  10 Cl:   -0.132442
  11 Cl:   -0.132444
Sum of atomic charges:   -0.0000000

LOEWDIN ATOMIC CHARGES
----------------------
   0 C :   -0.171604
   1 C :   -0.171481
   2 C :   -0.202143
   3 C :   -0.171606
   4 C :   -0.202151
   5 C :   -0.171489
   6 H :    0.178856
   7 H :    0.178914
   8 H :    0.178856
   9 H :    0.178913
  10 Cl:    0.187467
  11 Cl:    0.187467

  Mayer bond orders larger than 0.100000
B(  0-C ,  1-C ) :   1.4975 B(  0-C ,  4-C ) :   1.3471 B(  0-C ,  9-H ) :   0.9024
B(  1-C ,  2-C ) :   1.3472 B(  1-C ,  6-H ) :   0.9017 B(  2-C ,  3-C ) :   1.3471
B(  2-C , 11-Cl) :   1.0172 B(  3-C ,  5-C ) :   1.4975 B(  3-C ,  7-H ) :   0.9024
B(  4-C ,  5-C ) :   1.3472 B(  4-C , 10-Cl) :   1.0172 B(  5-C ,  8-H ) :   0.9017

Dispersion correction           -0.035096528
FINAL SINGLE POINT ENERGY     -1151.225146838285

DIPOLE MOMENT
-------------
                                X             Y             Z
Electronic contribution:     -0.00002       0.00003       0.00000
Nuclear contribution   :     -0.00000      -0.00000       0.00001
                        -----------------------------------------
Total Dipole Moment    :     -0.00002       0.00003       0.00001
                        -----------------------------------------
Magnitude (a.u.)       :      0.00003
Magnitude (Debye)      :      0.00009

Dispersion correction in the Hessian             ... done   (      0.6 sec)

VIBRATIONAL FREQUENCIES
-----------------------

Scaling factor for frequencies =  1.000000000  (already applied!)

   0:         0.00 cm**-1
   1:         0.00 cm**-1
   2:         0.00 cm**-1
   3:         0.00 cm**-1
   4:         0.00 cm**-1
   5:         0.00 cm**-1
   6:        96.46 cm**-1
   7:       218.19 cm**-1
   8:       284.03 cm**-1
   9:       325.84 cm**-1
  10:       355.20 cm**-1
  11:       405.23 cm**-1
  12:       476.37 cm**-1
  13:       533.20 cm**-1
  14:       612.95 cm**-1
  15:       641.63 cm**-1
  16:       753.66 cm**-1
  17:       796.90 cm**-1
  18:       799.19 cm**-1
  19:       891.47 cm**-1
  20:       898.62 cm**-1
  21:      1030.13 cm**-1
  22:      1091.89 cm**-1
  23:      1092.77 cm**-1
  24:      1122.55 cm**-1
  25:      1194.97 cm**-1
  26:      1313.58 cm**-1
  27:      1325.76 cm**-1
  28:      1415.01 cm**-1
  29:      1500.41 cm**-1
  30:      1597.24 cm**-1
  31:      1603.10 cm**-1
  32:      3155.20 cm**-1
  33:      3155.85 cm**-1
  34:      3165.62 cm**-1
  35:      3167.83 cm**-1

IR SPECTRUM
-----------

 Mode    freq (cm**-1)   T**2         TX         TY         TZ
-------------------------------------------------------------------
   6:        96.46    0.360165  ( -0.116197  -0.273389   0.521461)
   7:       218.19    0.869535  ( -0.869022   0.337444  -0.021620)
   8:       284.03    0.000000  (  0.000013   0.000022  -0.000047)
   9:       325.84    0.000000  (  0.000001   0.000012   0.000009)
  10:       355.20    0.000000  (  0.000073  -0.000015   0.000007)
  11:       405.23    0.000183  (  0.003833  -0.007290  -0.010737)
  12:       476.37   19.394744  (  0.828830   1.986044  -3.842319)
  13:       533.20   42.882672  (  2.014029   5.345350   3.202123)
  14:       612.95    0.000000  (  0.000106   0.000287  -0.000550)
  15:       641.63    0.000000  ( -0.000022  -0.000016  -0.000016)
  16:       753.66    0.000000  (  0.000018   0.000100   0.000045)
  17:       796.90   52.609660  (  1.377102   3.283384  -6.319228)
  18:       799.19    0.000455  ( -0.004061  -0.009650   0.018592)
  19:       891.47    0.000000  ( -0.000134  -0.000224   0.000209)
  20:       898.62    0.009700  (  0.049576   0.080970   0.026197)
  21:      1030.13   51.836172  (  2.215715   5.870805   3.529934)
  22:      1091.89  119.538354  (  3.346538   8.924034   5.357299)
  23:      1092.77    0.000000  (  0.000302   0.000421   0.000294)
  24:      1122.55    7.263710  ( -2.531203   0.922740  -0.072623)
  25:      1194.97    0.000000  ( -0.000037   0.000016  -0.000003)
  26:      1313.58    0.000000  (  0.000121   0.000077   0.000066)
  27:      1325.76    0.116603  ( -0.313926   0.134356  -0.001431)
  28:      1415.01    4.774116  (  2.035542  -0.793467   0.033068)
  29:      1500.41  108.117169  (  3.192962   8.483272   5.094728)
  30:      1597.24    0.000000  ( -0.000106  -0.000021  -0.000035)
  31:      1603.10    0.000000  ( -0.000087  -0.000015  -0.000040)
  32:      3155.20    0.000214  (  0.004674   0.011866   0.007166)
  33:      3155.85    3.971484  (  0.687363   1.595615   0.976231)
  34:      3165.62    7.896028  (  2.602750  -1.058934   0.019475)
  35:      3167.83    0.000038  (  0.005668  -0.002464  -0.000040)

--------------------------
THERMOCHEMISTRY AT 298.15K
--------------------------

Temperature         ... 298.15 K
Pressure            ... 1.00 atm
Total Mass          ... 147.00 AMU

Throughout the following assumptions are being made:
  (1) The electronic state is orbitally nondegenerate
  (2) There are no thermally accessible electronically excited states
  (3) Hindered rotations indicated by low frequency modes are not
      treated as such but are treated as vibrations and this may
      cause some error
  (4) All equations used are the standard statistical mechanics
      equations for an ideal gas
  (5) All vibrations are strictly harmonic

freq.      96.46  E(vib)   ...       0.47
freq.     218.19  E(vib)   ...       0.33
freq.     284.03  E(vib)   ...       0.28
freq.     325.84  E(vib)   ...       0.24
freq.     355.20  E(vib)   ...       0.22
freq.     405.23  E(vib)   ...       0.19
freq.     476.37  E(vib)   ...       0.15
freq.     533.20  E(vib)   ...       0.13
freq.     612.95  E(vib)   ...       0.10
freq.     641.63  E(vib)   ...       0.09
freq.     753.66  E(vib)   ...       0.06
freq.     796.90  E(vib)   ...       0.05
freq.     799.19  E(vib)   ...       0.05
freq.     891.47  E(vib)   ...       0.03
freq.     898.62  E(vib)   ...       0.03
freq.    1030.13  E(vib)   ...       0.02
freq.    1091.89  E(vib)   ...       0.02
freq.    1092.77  E(vib)   ...       0.02
freq.    1122.55  E(vib)   ...       0.01
freq.    1194.97  E(vib)   ...       0.01
freq.    1313.58  E(vib)   ...       0.01
freq.    1325.76  E(vib)   ...       0.01
freq.    1415.01  E(vib)   ...       0.00
freq.    1500.41  E(vib)   ...       0.00
freq.    1597.24  E(vib)   ...       0.00
freq.    1603.10  E(vib)   ...       0.00
freq.    3155.20  E(vib)   ...       0.00
freq.    3155.85  E(vib)   ...       0.00
freq.    3165.62  E(vib)   ...       0.00
freq.    3167.83  E(vib)   ...       0.00

------------
INNER ENERGY
------------

The inner energy is: U= E(el) + E(ZPE) + E(vib) + E(rot) + E(trans)
    E(el)   - is the total energy from the electronic structure calculation
              = E(kin-el) + E(nuc-el) + E(el-el) + E(nuc-nuc)
    E(ZPE)  - the the zero temperature vibrational energy from the frequency calculation
    E(vib)  - the the finite temperature correction to E(ZPE) due to population
              of excited vibrational states
    E(rot)  - is the rotational thermal energy
    E(trans)- is the translational thermal energy

Summary of contributions to the inner energy U:
Electronic energy                ...  -1151.22514684 Eh
Zero point energy                ...      0.07978340 Eh      50.06 kcal/mol
Thermal vibrational correction   ...      0.00402188 Eh       2.52 kcal/mol
Thermal rotational correction    ...      0.00141627 Eh       0.89 kcal/mol
Thermal translational correction ...      0.00141627 Eh       0.89 kcal/mol
-----------------------------------------------------------------------
Total thermal energy                  -1151.13850901 Eh

Summary of corrections to the electronic energy:
(perhaps to be used in another calculation)
Total thermal correction                  0.00685442 Eh       4.30 kcal/mol
Non-thermal (ZPE) correction              0.07978340 Eh      50.06 kcal/mol
-----------------------------------------------------------------------
Total correction                          0.08663782 Eh      54.37 kcal/mol

--------
ENTHALPY
--------

The enthalpy is H = U + kB*T
                kB is Boltzmann's constant
Total free energy                 ...  -1151.13850901 Eh
Thermal Enthalpy correction       ...      0.00094421 Eh       0.59 kcal/mol
-----------------------------------------------------------------------
Total Enthalpy                    ...  -1151.13756480 Eh

Error (ORCA_SYM): TSymmetryOperation::SetReflection called with NULL axis!
If your molecule is not C1 symmetric, check warnings below carefully ...
Error (ORCA_SYM): TSymmetryOperation::SetReflection called with NULL axis!
If your molecule is not C1 symmetric, check warnings below carefully ...

Note: Only C1 symmetry has been detected, increase convergence thresholds
      if your molecule has a higher symmetry. Symmetry factor of 1.0 is
      used for the rotational entropy correction.

Note: Rotational entropy computed according to Herzberg
Infrared and Raman Spectra, Chapter V,1, Van Nostrand Reinhold, 1945
Point Group:  C1, Symmetry Number:   1
Rotational constants in cm-1:     0.190877     0.021921     0.019663

Vibrational entropy computed according to the QRRHO of S. Grimme
Chem.Eur.J. 2012 18 9955

-------
ENTROPY
-------

The entropy contributions are T*S = T*(S(el)+S(vib)+S(rot)+S(trans))
     S(el)   - electronic entropy
     S(vib)  - vibrational entropy
     S(rot)  - rotational entropy
     S(trans)- translational entropy
The entropies will be listed as mutliplied by the temperature to get
units of energy

Electronic entropy                ...      0.00000000 Eh      0.00 kcal/mol
Vibrational entropy               ...      0.00642580 Eh      4.03 kcal/mol
Rotational entropy                ...      0.01395104 Eh      8.75 kcal/mol
Translational entropy             ...      0.01941692 Eh     12.18 kcal/mol
-----------------------------------------------------------------------
Final entropy term                ...      0.03979376 Eh     24.97 kcal/mol

In case the symmetry of your molecule has not been determined correctly
or in case you have a reason to use a different symmetry number we print
out the resulting rotational entropy values for sn=1,12 :
 --------------------------------------------------------
|  sn= 1 | S(rot)=       0.01395104 Eh      8.75 kcal/mol|
|  sn= 2 | S(rot)=       0.01329658 Eh      8.34 kcal/mol|
|  sn= 3 | S(rot)=       0.01291375 Eh      8.10 kcal/mol|
|  sn= 4 | S(rot)=       0.01264213 Eh      7.93 kcal/mol|
|  sn= 5 | S(rot)=       0.01243144 Eh      7.80 kcal/mol|
|  sn= 6 | S(rot)=       0.01225929 Eh      7.69 kcal/mol|
|  sn= 7 | S(rot)=       0.01211375 Eh      7.60 kcal/mol|
|  sn= 8 | S(rot)=       0.01198767 Eh      7.52 kcal/mol|
|  sn= 9 | S(rot)=       0.01187646 Eh      7.45 kcal/mol|
|  sn=10 | S(rot)=       0.01177698 Eh      7.39 kcal/mol|
|  sn=11 | S(rot)=       0.01168699 Eh      7.33 kcal/mol|
|  sn=12 | S(rot)=       0.01160484 Eh      7.28 kcal/mol|
 --------------------------------------------------------

-------------------
GIBBS FREE ENERGY
-------------------

The Gibbs free energy is G = H - T*S

Total enthalpy                    ...  -1151.13756480 Eh
Total entropy correction          ...     -0.03979376 Eh    -24.97 kcal/mol
-----------------------------------------------------------------------
Final Gibbs free energy         ...  -1151.17735856 Eh

For completeness - the Gibbs free energy minus the electronic energy
G-E(el)                           ...      0.04778827 Eh     29.99 kcal/mol

                             ****ORCA TERMINATED NORMALLY****
TOTAL RUN TIME: 0 days 0 hours 1 minutes 51 seconds 61 msec
