                         Program Version 4.2.1 -  RELEASE  -
|  1> ! UHF M062X 6-311++G(d,p) Opt NumFreq NoFrozenCore TightOpt TightSCF
|  2>
|  3> %pal
|  4>  nprocs 12
|  5> end
|  6>
|  7> *xyz 0 1
|  8> N       -0.982545076      0.232091938     -0.834827156
|  9> H        0.028825769      0.158419851     -0.771918983
| 10> H       -1.361023175     -0.494531772     -0.233970839
| 11> H       -1.230231893     -0.024484795     -1.786181780
| 12> *
| 13>
| 14>                          ****END OF INPUT****
 Total Charge           Charge          ....    0
 Multiplicity           Mult            ....    1
 Number of Electrons    NEL             ....   10
FINAL SINGLE POINT ENERGY       -56.546094451347
FINAL SINGLE POINT ENERGY       -56.546090329909
FINAL SINGLE POINT ENERGY       -56.546085858938
FINAL SINGLE POINT ENERGY       -56.546077893113
                    ***********************HURRAY********************

CARTESIAN COORDINATES (ANGSTROEM)
---------------------------------
  N     -0.982973    0.233495   -0.834279
  H      0.027630    0.157546   -0.772281
  H     -1.360040   -0.494248   -0.235705
  H     -1.229592   -0.025298   -1.784634

 Multiplicity           Mult            ....    1
 Number of Electrons    NEL             ....   10
 Basis Dimension        Dim             ....   43

ORBITAL ENERGIES
----------------
                 SPIN UP ORBITALS
  NO   OCC          E(Eh)            E(eV)
   0   1.0000     -14.728849      -400.7924
   1   1.0000      -0.957456       -26.0537
   2   1.0000      -0.531934       -14.4747
   3   1.0000      -0.531807       -14.4712
   4   1.0000      -0.341238        -9.2855
   5   0.0000      -0.002838        -0.0772
   6   0.0000       0.034186         0.9303
   7   0.0000       0.034583         0.9410
   8   0.0000       0.124487         3.3875
   9   0.0000       0.155412         4.2290

                 SPIN DOWN ORBITALS
  NO   OCC          E(Eh)            E(eV)
   0   1.0000     -14.728849      -400.7924
   1   1.0000      -0.957456       -26.0537
   2   1.0000      -0.531934       -14.4747
   3   1.0000      -0.531807       -14.4712
   4   1.0000      -0.341238        -9.2855
   5   0.0000      -0.002838        -0.0772
   6   0.0000       0.034186         0.9303
   7   0.0000       0.034583         0.9410
   8   0.0000       0.124487         3.3875
   9   0.0000       0.155412         4.2290

MULLIKEN ATOMIC CHARGES AND SPIN POPULATIONS
--------------------------------------------
   0 N :   -0.705394    0.000000
   1 H :    0.234997    0.000000
   2 H :    0.234838    0.000000
   3 H :    0.235559    0.000000
Sum of atomic charges         :   -0.0000000

LOEWDIN ATOMIC CHARGES AND SPIN POPULATIONS
-------------------------------------------
   0 N :   -0.213545    0.000000
   1 H :    0.071013    0.000000
   2 H :    0.071114    0.000000
   3 H :    0.071418    0.000000

  Mayer bond orders larger than 0.100000
B(  0-N ,  1-H ) :   0.9659 B(  0-N ,  2-H ) :   0.9667 B(  0-N ,  3-H ) :   0.9665

FINAL SINGLE POINT ENERGY       -56.546077548904

DIPOLE MOMENT
-------------
                                X             Y             Z
Electronic contribution:     -0.06563       0.17270       0.04883
Nuclear contribution   :      0.29842      -0.81946      -0.22350
                        -----------------------------------------
Total Dipole Moment    :      0.23278      -0.64676      -0.17467
                        -----------------------------------------
Magnitude (a.u.)       :      0.70922
Magnitude (Debye)      :      1.80270

VIBRATIONAL FREQUENCIES
-----------------------

Scaling factor for frequencies =  1.000000000 (already applied!)

   0:         0.00 cm**-1
   1:         0.00 cm**-1
   2:         0.00 cm**-1
   3:         0.00 cm**-1
   4:         0.00 cm**-1
   5:         0.00 cm**-1
   6:      1095.94 cm**-1
   7:      1674.37 cm**-1
   8:      1680.43 cm**-1
   9:      3502.79 cm**-1
  10:      3621.42 cm**-1
  11:      3624.70 cm**-1

IR SPECTRUM
-----------

 Mode    freq (cm**-1)   T**2         TX         TY         TZ
-------------------------------------------------------------------
   6:      1095.94  222.966677  (  4.966223 -13.577731  -3.734773)
   7:      1674.37   28.033861  (  0.820891   1.621180  -4.973105)
   8:      1680.43   26.699528  (  4.815555   1.325908   1.323603)
   9:      3502.79    0.828040  (  0.330437  -0.825143  -0.194912)
  10:      3621.42    7.219460  (  1.991979   0.351836   1.768528)
  11:      3624.70    6.816387  (  1.466898   1.065409  -1.878696)

--------------------------
THERMOCHEMISTRY AT 298.15K
--------------------------

Temperature         ... 298.15 K
Pressure            ... 1.00 atm
Total Mass          ... 17.03 AMU

Throughout the following assumptions are being made:
  (1) The electronic state is orbitally nondegenerate
  (2) There are no thermally accessible electronically excited states
  (3) Hindered rotations indicated by low frequency modes are not
      treated as such but are treated as vibrations and this may
      cause some error
  (4) All equations used are the standard statistical mechanics
      equations for an ideal gas
  (5) All vibrations are strictly harmonic

freq.    1095.94  E(vib)   ...       0.02
freq.    1674.37  E(vib)   ...       0.00
freq.    1680.43  E(vib)   ...       0.00
freq.    3502.79  E(vib)   ...       0.00
freq.    3621.42  E(vib)   ...       0.00
freq.    3624.70  E(vib)   ...       0.00

------------
INNER ENERGY
------------

The inner energy is: U= E(el) + E(ZPE) + E(vib) + E(rot) + E(trans)
    E(el)   - is the total energy from the electronic structure calculation
              = E(kin-el) + E(nuc-el) + E(el-el) + E(nuc-nuc)
    E(ZPE)  - the the zero temperature vibrational energy from the frequency calculation
    E(vib)  - the the finite temperature correction to E(ZPE) due to population
              of excited vibrational states
    E(rot)  - is the rotational thermal energy
    E(trans)- is the translational thermal energy

Summary of contributions to the inner energy U:
Electronic energy                ...    -56.54607790 Eh
Zero point energy                ...      0.03462739 Eh      21.73 kcal/mol
Thermal vibrational correction   ...      0.00003001 Eh       0.02 kcal/mol
Thermal rotational correction    ...      0.00141627 Eh       0.89 kcal/mol
Thermal translational correction ...      0.00141627 Eh       0.89 kcal/mol
-----------------------------------------------------------------------
Total thermal energy                    -56.50858796 Eh

Summary of corrections to the electronic energy:
(perhaps to be used in another calculation)
Total thermal correction                  0.00286255 Eh       1.80 kcal/mol
Non-thermal (ZPE) correction              0.03462739 Eh      21.73 kcal/mol
-----------------------------------------------------------------------
Total correction                          0.03748994 Eh      23.53 kcal/mol

--------
ENTHALPY
--------

The enthalpy is H = U + kB*T
                kB is Boltzmann's constant
Total free energy                 ...    -56.50858796 Eh
Thermal Enthalpy correction       ...      0.00094421 Eh       0.59 kcal/mol
-----------------------------------------------------------------------
Total Enthalpy                    ...    -56.50764375 Eh

Note: Only C1 symmetry has been detected, increase convergence thresholds
      if your molecule has a higher symmetry. Symmetry factor of 1.0 is
      used for the rotational entropy correction.

Note: Rotational entropy computed according to Herzberg
Infrared and Raman Spectra, Chapter V,1, Van Nostrand Reinhold, 1945
Point Group:  C1, Symmetry Number:   1
Rotational constants in cm-1:     9.886520     9.876525     6.340088

Vibrational entropy computed according to the QRRHO of S. Grimme
Chem.Eur.J. 2012 18 9955

-------
ENTROPY
-------

The entropy contributions are T*S = T*(S(el)+S(vib)+S(rot)+S(trans))
     S(el)   - electronic entropy
     S(vib)  - vibrational entropy
     S(rot)  - rotational entropy
     S(trans)- translational entropy
The entropies will be listed as mutliplied by the temperature to get
units of energy

Electronic entropy                ...      0.00000000 Eh      0.00 kcal/mol
Vibrational entropy               ...      0.00003538 Eh      0.02 kcal/mol
Rotational entropy                ...      0.00647611 Eh      4.06 kcal/mol
Translational entropy             ...      0.01636425 Eh     10.27 kcal/mol
-----------------------------------------------------------------------
Final entropy term                ...      0.02287574 Eh     14.35 kcal/mol

In case the symmetry of your molecule has not been determined correctly
or in case you have a reason to use a different symmetry number we print
out the resulting rotational entropy values for sn=1,12 :
 --------------------------------------------------------
|  sn= 1 | S(rot)=       0.00647611 Eh      4.06 kcal/mol|
|  sn= 2 | S(rot)=       0.00582165 Eh      3.65 kcal/mol|
|  sn= 3 | S(rot)=       0.00543882 Eh      3.41 kcal/mol|
|  sn= 4 | S(rot)=       0.00516719 Eh      3.24 kcal/mol|
|  sn= 5 | S(rot)=       0.00495651 Eh      3.11 kcal/mol|
|  sn= 6 | S(rot)=       0.00478436 Eh      3.00 kcal/mol|
|  sn= 7 | S(rot)=       0.00463881 Eh      2.91 kcal/mol|
|  sn= 8 | S(rot)=       0.00451274 Eh      2.83 kcal/mol|
|  sn= 9 | S(rot)=       0.00440153 Eh      2.76 kcal/mol|
|  sn=10 | S(rot)=       0.00430205 Eh      2.70 kcal/mol|
|  sn=11 | S(rot)=       0.00421206 Eh      2.64 kcal/mol|
|  sn=12 | S(rot)=       0.00412990 Eh      2.59 kcal/mol|
 --------------------------------------------------------

-------------------
GIBBS FREE ENERGY
-------------------

The Gibbs free energy is G = H - T*S

Total enthalpy                    ...    -56.50764375 Eh
Total entropy correction          ...     -0.02287574 Eh    -14.35 kcal/mol
-----------------------------------------------------------------------
Final Gibbs free energy         ...    -56.53051948 Eh

For completeness - the Gibbs free energy minus the electronic energy
G-E(el)                           ...      0.01555841 Eh      9.76 kcal/mol

                             ****ORCA TERMINATED NORMALLY****
TOTAL RUN TIME: 0 days 0 hours 0 minutes 44 seconds 522 msec
