                         Program Version 4.2.1 -  RELEASE  -
|  1> ! B97-3c Opt Freq TightOpt TightSCF
|  2>
|  3> %pal
|  4>  nprocs 4
|  5> end
|  6>
|  7> *xyz 0 1
|  8> C       -5.9008519029      2.6487978132     -0.0000000000
|  9> C       -4.5574825339      3.0395410442      0.0000000000
| 10> C       -6.2341430064      1.2900342385      0.0000000000
| 11> C       -5.2240647561      0.3220139813      0.0000000000
| 12> C       -3.8806954661      0.7127572405      0.0000000000
| 13> C       -3.5474043441      2.0715207215      0.0000000000
| 14> H       -6.6822767882      3.3976856295     -0.0000000000
| 15> H       -4.2996391112      4.0907187466     -0.0000000000
| 16> H       -5.4819079679     -0.7291637527      0.0000000000
| 17> H       -3.0992705740     -0.0361305061      0.0000000000
| 18> H       -2.5081359589      2.3738105646      0.0000000000
| 19> Cr      -4.8876344763      1.6682116369     -1.6745137387
| 20> H       -7.3342730975      0.9130881884      0.0238962443
| 21> C       -6.5281786991      1.0192959214     -2.7894922271
| 22> C       -3.4618455072      0.5643018427     -2.7548737262
| 23> C       -4.3416451647      3.2636815228     -2.9094338333
| 24> O       -7.4378720748      0.6582142950     -3.3559676168
| 25> O       -4.0478670319      4.1231328393     -3.5801867681
| 26> O       -2.6649648269     -0.0465462816     -3.2705267826
| 27> *
| 28>
| 29>                          ****END OF INPUT****
 Total Charge           Charge          ....    0
 Multiplicity           Mult            ....    1
 Number of Electrons    NEL             ....  108
Dispersion correction           -0.056048892
FINAL SINGLE POINT ENERGY     -1616.666239703125
Dispersion correction            ... done
Dispersion correction           -0.056778340
FINAL SINGLE POINT ENERGY     -1616.685922625334
Dispersion correction            ... done
Dispersion correction           -0.058049568
FINAL SINGLE POINT ENERGY     -1616.704668838603
Dispersion correction            ... done
FINAL SINGLE POINT ENERGY     -1616.718018512450
FINAL SINGLE POINT ENERGY     -1616.721629017418
FINAL SINGLE POINT ENERGY     -1616.722949482431
FINAL SINGLE POINT ENERGY     -1616.723853351302
FINAL SINGLE POINT ENERGY     -1616.724432823629
FINAL SINGLE POINT ENERGY     -1616.724762824416
FINAL SINGLE POINT ENERGY     -1616.724890952441
FINAL SINGLE POINT ENERGY     -1616.724998493788
FINAL SINGLE POINT ENERGY     -1616.725010857041
FINAL SINGLE POINT ENERGY     -1616.725016797794
FINAL SINGLE POINT ENERGY     -1616.725021083064
FINAL SINGLE POINT ENERGY     -1616.725024425105
FINAL SINGLE POINT ENERGY     -1616.725026414341
FINAL SINGLE POINT ENERGY     -1616.725027882973
Dispersion correction           -0.059777448
FINAL SINGLE POINT ENERGY     -1616.725028763113
Dispersion correction            ... done
Dispersion correction           -0.059780733
FINAL SINGLE POINT ENERGY     -1616.725029332522
Dispersion correction            ... done
                    ***********************HURRAY********************

CARTESIAN COORDINATES (ANGSTROEM)
---------------------------------
  C     -5.893740    2.650334   -0.012549
  C     -4.540758    3.035299   -0.010451
  C     -6.217937    1.284214   -0.007257
  C     -5.208889    0.306460    0.060115
  C     -3.863312    0.708009    0.061855
  C     -3.521018    2.072357    0.056781
  H     -6.670501    3.393325   -0.097791
  H     -4.283365    4.080970   -0.083656
  H     -5.463954   -0.740717    0.030523
  H     -3.083400   -0.038044    0.044922
  H     -2.486137    2.373101    0.024173
  Cr    -4.834403    1.635078   -1.681670
  H     -7.251020    0.979462   -0.077806
  C     -6.190232    1.139119   -2.784773
  C     -3.710905    0.646821   -2.712373
  C     -4.524539    3.041307   -2.789752
  O     -7.062234    0.820781   -3.481801
  O     -4.325396    3.946566   -3.488622
  O     -2.988412    0.010526   -3.360969

 Multiplicity           Mult            ....    1
 Number of Electrons    NEL             ....  108
 Basis Dimension        Dim             ....  294

ORBITAL ENERGIES
----------------

  NO   OCC          E(Eh)            E(eV)
   0   2.0000    -214.365597     -5833.1844
   1   2.0000     -24.311632      -661.5531
   2   2.0000     -20.707813      -563.4882
   3   2.0000     -20.704042      -563.3856
   4   2.0000     -20.704029      -563.3853
   5   2.0000     -18.787808      -511.2423
   6   2.0000     -18.787787      -511.2417
   7   2.0000     -18.787766      -511.2411
   8   2.0000      -9.976688      -271.4795
   9   2.0000      -9.976678      -271.4792
  10   2.0000      -9.976632      -271.4780
  11   2.0000      -9.947870      -270.6953
  12   2.0000      -9.947852      -270.6948
  13   2.0000      -9.947827      -270.6941
  14   2.0000      -9.941297      -270.5164
  15   2.0000      -9.941250      -270.5152
  16   2.0000      -9.941236      -270.5148
  17   2.0000      -2.716530       -73.9205
  18   2.0000      -1.720638       -46.8209
  19   2.0000      -1.705715       -46.4149
  20   2.0000      -1.705677       -46.4138
  21   2.0000      -1.015727       -27.6393
  22   2.0000      -1.014626       -27.6094
  23   2.0000      -1.014597       -27.6086
  24   2.0000      -0.841064       -22.8865
  25   2.0000      -0.734056       -19.9747
  26   2.0000      -0.734026       -19.9739
  27   2.0000      -0.593000       -16.1364
  28   2.0000      -0.592932       -16.1345
  29   2.0000      -0.522939       -14.2299
  30   2.0000      -0.505018       -13.7422
  31   2.0000      -0.476117       -12.9558
  32   2.0000      -0.476059       -12.9542
  33   2.0000      -0.455337       -12.3903
  34   2.0000      -0.444898       -12.1063
  35   2.0000      -0.430339       -11.7101
  36   2.0000      -0.430260       -11.7080
  37   2.0000      -0.410911       -11.1815
  38   2.0000      -0.396907       -10.8004
  39   2.0000      -0.388424       -10.5695
  40   2.0000      -0.388385       -10.5685
  41   2.0000      -0.377134       -10.2623
  42   2.0000      -0.377075       -10.2607
  43   2.0000      -0.367735       -10.0066
  44   2.0000      -0.352962        -9.6046
  45   2.0000      -0.352900        -9.6029
  46   2.0000      -0.350537        -9.5386
  47   2.0000      -0.347419        -9.4538
  48   2.0000      -0.347377        -9.4526
  49   2.0000      -0.300592        -8.1795
  50   2.0000      -0.300545        -8.1782
  51   2.0000      -0.190898        -5.1946
  52   2.0000      -0.190340        -5.1794
  53   2.0000      -0.190316        -5.1787
  54   0.0000      -0.068578        -1.8661
  55   0.0000      -0.068477        -1.8633
  56   0.0000      -0.047087        -1.2813
  57   0.0000      -0.047050        -1.2803
  58   0.0000      -0.029425        -0.8007

MULLIKEN ATOMIC CHARGES
-----------------------
   0 C :   -0.240109
   1 C :   -0.030041
   2 C :   -0.026637
   3 C :   -0.231224
   4 C :   -0.039875
   5 C :   -0.227804
   6 H :    0.200308
   7 H :    0.197595
   8 H :    0.197241
   9 H :    0.200826
  10 H :    0.196813
  11 Cr:   -0.739486
  12 H :    0.197273
  13 C :    0.379273
  14 C :    0.377618
  15 C :    0.379711
  16 O :   -0.263967
  17 O :   -0.263988
  18 O :   -0.263527
Sum of atomic charges:   -0.0000000

LOEWDIN ATOMIC CHARGES
----------------------
   0 C :   -0.125236
   1 C :   -0.092185
   2 C :   -0.092201
   3 C :   -0.124750
   4 C :   -0.092632
   5 C :   -0.124583
   6 H :    0.185872
   7 H :    0.184690
   8 H :    0.185618
   9 H :    0.184888
  10 H :    0.185598
  11 Cr:   -0.664351
  12 H :    0.184651
  13 C :    0.362174
  14 C :    0.362099
  15 C :    0.362124
  16 O :   -0.293924
  17 O :   -0.293953
  18 O :   -0.293901

  Mayer bond orders larger than 0.100000
B(  0-C ,  1-C ) :   1.2815 B(  0-C ,  2-C ) :   1.2971 B(  0-C ,  6-H ) :   0.8855
B(  0-C , 11-Cr) :   0.3814 B(  1-C ,  5-C ) :   1.2951 B(  1-C ,  7-H ) :   0.8983
B(  1-C , 11-Cr) :   0.3855 B(  1-C , 15-C ) :   0.1023 B(  2-C ,  3-C ) :   1.2777
B(  2-C , 11-Cr) :   0.3851 B(  2-C , 12-H ) :   0.8982 B(  2-C , 13-C ) :   0.1014
B(  3-C ,  4-C ) :   1.2993 B(  3-C ,  8-H ) :   0.8850 B(  3-C , 11-Cr) :   0.3813
B(  4-C ,  5-C ) :   1.2811 B(  4-C ,  9-H ) :   0.8977 B(  4-C , 11-Cr) :   0.3852
B(  4-C , 14-C ) :   0.1018 B(  5-C , 10-H ) :   0.8848 B(  5-C , 11-Cr) :   0.3808
B( 11-Cr, 13-C ) :   1.2198 B( 11-Cr, 14-C ) :   1.2197 B( 11-Cr, 15-C ) :   1.2199
B( 11-Cr, 16-O ) :   0.1411 B( 11-Cr, 17-O ) :   0.1411 B( 11-Cr, 18-O ) :   0.1410
B( 13-C , 16-O ) :   2.1744 B( 14-C , 18-O ) :   2.1739 B( 15-C , 17-O ) :   2.1742

Dispersion correction           -0.059784541
FINAL SINGLE POINT ENERGY     -1616.725029739926

DIPOLE MOMENT
-------------
                                X             Y             Z
Electronic contribution:      0.16293      -0.16665      -6.96274
Nuclear contribution   :     -0.21446       0.21904       9.15253
                        -----------------------------------------
Total Dipole Moment    :     -0.05152       0.05240       2.18978
                        -----------------------------------------
Magnitude (a.u.)       :      2.19102
Magnitude (Debye)      :      5.56912

Dispersion correction in the Hessian             ... done   (      1.0 sec)

VIBRATIONAL FREQUENCIES
-----------------------

Scaling factor for frequencies =  1.000000000  (already applied!)

   0:         0.00 cm**-1
   1:         0.00 cm**-1
   2:         0.00 cm**-1
   3:         0.00 cm**-1
   4:         0.00 cm**-1
   5:         0.00 cm**-1
   6:       -18.26 cm**-1 ***imaginary mode***
   7:        83.64 cm**-1
   8:        86.50 cm**-1
   9:        99.06 cm**-1
  10:       117.08 cm**-1
  11:       118.06 cm**-1
  12:       296.75 cm**-1
  13:       317.47 cm**-1
  14:       317.94 cm**-1
  15:       408.66 cm**-1
  16:       414.03 cm**-1
  17:       415.26 cm**-1
  18:       486.58 cm**-1
  19:       487.37 cm**-1
  20:       502.06 cm**-1
  21:       555.33 cm**-1
  22:       556.87 cm**-1
  23:       617.66 cm**-1
  24:       618.11 cm**-1
  25:       650.18 cm**-1
  26:       655.05 cm**-1
  27:       655.27 cm**-1
  28:       691.47 cm**-1
  29:       781.34 cm**-1
  30:       856.49 cm**-1
  31:       856.73 cm**-1
  32:       943.07 cm**-1
  33:       943.41 cm**-1
  34:       950.47 cm**-1
  35:       983.33 cm**-1
  36:      1023.31 cm**-1
  37:      1023.45 cm**-1
  38:      1032.30 cm**-1
  39:      1167.38 cm**-1
  40:      1167.69 cm**-1
  41:      1175.16 cm**-1
  42:      1362.30 cm**-1
  43:      1407.34 cm**-1
  44:      1475.24 cm**-1
  45:      1475.56 cm**-1
  46:      1537.82 cm**-1
  47:      1538.00 cm**-1
  48:      1954.09 cm**-1
  49:      1954.13 cm**-1
  50:      2013.90 cm**-1
  51:      3160.30 cm**-1
  52:      3161.11 cm**-1
  53:      3161.46 cm**-1
  54:      3177.70 cm**-1
  55:      3178.20 cm**-1
  56:      3183.85 cm**-1

IR SPECTRUM
-----------

 Mode    freq (cm**-1)   T**2         TX         TY         TZ
-------------------------------------------------------------------
   7:        83.64    0.454299  ( -0.066536  -0.670714   0.003761)
   8:        86.50    0.466229  (  0.662347  -0.061111   0.154244)
   9:        99.06    1.640434  (  0.106710  -0.025875  -1.276079)
  10:       117.08    0.008832  (  0.086320   0.026119   0.026435)
  11:       118.06    0.020368  ( -0.050513   0.104283   0.083314)
  12:       296.75   16.759869  ( -0.086593   0.082091   4.092143)
  13:       317.47    3.743161  (  1.495630  -1.226259   0.050415)
  14:       317.94    3.711591  (  1.216524   1.493857   0.007081)
  15:       408.66    0.007383  (  0.018258  -0.070389   0.045777)
  16:       414.03    1.070147  (  0.788561   0.669564  -0.001751)
  17:       415.26    1.081265  (  0.666572  -0.796987   0.041929)
  18:       486.58    0.014127  (  0.067132   0.096443  -0.017858)
  19:       487.37    0.005619  (  0.045542  -0.017622   0.056870)
  20:       502.06   12.963095  (  0.082353  -0.042745  -3.599234)
  21:       555.33   16.049175  (  1.364040   3.766766   0.006753)
  22:       556.87   16.321402  (  3.817990  -1.319598   0.054918)
  23:       617.66    4.074566  ( -1.404994  -1.449049  -0.028585)
  24:       618.11    4.298976  ( -1.489163   1.440296  -0.083163)
  25:       650.18    7.931288  (  0.047412  -0.105927  -2.813862)
  26:       655.05   47.322821  (  6.078507  -3.205210   0.318130)
  27:       655.27   47.569009  (  3.192996   6.112942   0.075659)
  28:       691.47  127.028624  (  0.356451  -0.189193 -11.263471)
  29:       781.34   11.371744  (  0.051313  -0.079999  -3.370862)
  30:       856.49    4.863826  (  1.932147   1.063192   0.016055)
  31:       856.73    4.770467  (  1.058467  -1.909931   0.047733)
  32:       943.07    1.274301  (  0.899290  -0.679381   0.063417)
  33:       943.41    1.316029  (  0.694803   0.912794  -0.009259)
  34:       950.47    1.346701  (  0.056762  -0.054778  -1.157790)
  35:       983.33    4.623151  ( -0.049060   0.049705   2.149017)
  36:      1023.31    1.762195  ( -0.481797  -1.236468   0.034849)
  37:      1023.45    1.761310  ( -1.234224   0.483089  -0.068027)
  38:      1032.30    3.116168  ( -0.059088   0.059662   1.763269)
  39:      1167.38    0.009447  (  0.055199  -0.079803   0.005639)
  40:      1167.69    0.010033  (  0.082328   0.055523  -0.013135)
  41:      1175.16    0.004334  (  0.006026   0.003183   0.065480)
  42:      1362.30    0.000044  (  0.006561   0.000297  -0.000963)
  43:      1407.34    0.001552  (  0.001528  -0.002663   0.039282)
  44:      1475.24    6.174461  ( -1.437968  -2.026446   0.015020)
  45:      1475.56    6.073971  (  2.010952  -1.422153   0.086730)
  46:      1537.82    0.157934  (  0.363880  -0.158240   0.022036)
  47:      1538.00    0.158657  ( -0.150760  -0.368421   0.013931)
  48:      1954.09  844.194488  ( 26.495682  11.917763   0.374520)
  49:      1954.13  845.943456  (-11.913195  26.517210  -0.925646)
  50:      2013.90  996.574737  (  0.754097  -0.755485 -31.550520)
  51:      3160.30    1.615807  ( -0.000878   0.262416  -1.243762)
  52:      3161.11    3.326245  (  1.636930  -0.803788  -0.025106)
  53:      3161.46    3.328182  ( -0.839269  -1.614364  -0.132813)
  54:      3177.70    8.720548  ( -2.059363   2.116375  -0.023011)
  55:      3178.20    8.807994  ( -2.119893  -2.076969   0.015723)
  56:      3183.85    2.388362  (  0.078037  -0.027066   1.543224)

--------------------------
THERMOCHEMISTRY AT 298.15K
--------------------------

Temperature         ... 298.15 K
Pressure            ... 1.00 atm
Total Mass          ... 214.14 AMU

Throughout the following assumptions are being made:
  (1) The electronic state is orbitally nondegenerate
  (2) There are no thermally accessible electronically excited states
  (3) Hindered rotations indicated by low frequency modes are not
      treated as such but are treated as vibrations and this may
      cause some error
  (4) All equations used are the standard statistical mechanics
      equations for an ideal gas
  (5) All vibrations are strictly harmonic

freq.      83.64  E(vib)   ...       0.48
freq.      86.50  E(vib)   ...       0.48
freq.      99.06  E(vib)   ...       0.46
freq.     117.08  E(vib)   ...       0.44
freq.     118.06  E(vib)   ...       0.44
freq.     296.75  E(vib)   ...       0.27
freq.     317.47  E(vib)   ...       0.25
freq.     317.94  E(vib)   ...       0.25
freq.     408.66  E(vib)   ...       0.19
freq.     414.03  E(vib)   ...       0.19
freq.     415.26  E(vib)   ...       0.19
freq.     486.58  E(vib)   ...       0.15
freq.     487.37  E(vib)   ...       0.15
freq.     502.06  E(vib)   ...       0.14
freq.     555.33  E(vib)   ...       0.12
freq.     556.87  E(vib)   ...       0.12
freq.     617.66  E(vib)   ...       0.09
freq.     618.11  E(vib)   ...       0.09
freq.     650.18  E(vib)   ...       0.08
freq.     655.05  E(vib)   ...       0.08
freq.     655.27  E(vib)   ...       0.08
freq.     691.47  E(vib)   ...       0.07
freq.     781.34  E(vib)   ...       0.05
freq.     856.49  E(vib)   ...       0.04
freq.     856.73  E(vib)   ...       0.04
freq.     943.07  E(vib)   ...       0.03
freq.     943.41  E(vib)   ...       0.03
freq.     950.47  E(vib)   ...       0.03
freq.     983.33  E(vib)   ...       0.02
freq.    1023.31  E(vib)   ...       0.02
freq.    1023.45  E(vib)   ...       0.02
freq.    1032.30  E(vib)   ...       0.02
freq.    1167.38  E(vib)   ...       0.01
freq.    1167.69  E(vib)   ...       0.01
freq.    1175.16  E(vib)   ...       0.01
freq.    1362.30  E(vib)   ...       0.01
freq.    1407.34  E(vib)   ...       0.00
freq.    1475.24  E(vib)   ...       0.00
freq.    1475.56  E(vib)   ...       0.00
freq.    1537.82  E(vib)   ...       0.00
freq.    1538.00  E(vib)   ...       0.00
freq.    1954.09  E(vib)   ...       0.00
freq.    1954.13  E(vib)   ...       0.00
freq.    2013.90  E(vib)   ...       0.00
freq.    3160.30  E(vib)   ...       0.00
freq.    3161.11  E(vib)   ...       0.00
freq.    3161.46  E(vib)   ...       0.00
freq.    3177.70  E(vib)   ...       0.00
freq.    3178.20  E(vib)   ...       0.00
freq.    3183.85  E(vib)   ...       0.00

------------
INNER ENERGY
------------

The inner energy is: U= E(el) + E(ZPE) + E(vib) + E(rot) + E(trans)
    E(el)   - is the total energy from the electronic structure calculation
              = E(kin-el) + E(nuc-el) + E(el-el) + E(nuc-nuc)
    E(ZPE)  - the the zero temperature vibrational energy from the frequency calculation
    E(vib)  - the the finite temperature correction to E(ZPE) due to population
              of excited vibrational states
    E(rot)  - is the rotational thermal energy
    E(trans)- is the translational thermal energy

Summary of contributions to the inner energy U:
Electronic energy                ...  -1616.72502974 Eh
Zero point energy                ...      0.12711154 Eh      79.76 kcal/mol
Thermal vibrational correction   ...      0.00823769 Eh       5.17 kcal/mol
Thermal rotational correction    ...      0.00141627 Eh       0.89 kcal/mol
Thermal translational correction ...      0.00141627 Eh       0.89 kcal/mol
-----------------------------------------------------------------------
Total thermal energy                  -1616.58684797 Eh

Summary of corrections to the electronic energy:
(perhaps to be used in another calculation)
Total thermal correction                  0.01107023 Eh       6.95 kcal/mol
Non-thermal (ZPE) correction              0.12711154 Eh      79.76 kcal/mol
-----------------------------------------------------------------------
Total correction                          0.13818177 Eh      86.71 kcal/mol

--------
ENTHALPY
--------

The enthalpy is H = U + kB*T
                kB is Boltzmann's constant
Total free energy                 ...  -1616.58684797 Eh
Thermal Enthalpy correction       ...      0.00094421 Eh       0.59 kcal/mol
-----------------------------------------------------------------------
Total Enthalpy                    ...  -1616.58590376 Eh

Note: Only C1 symmetry has been detected, increase convergence thresholds
      if your molecule has a higher symmetry. Symmetry factor of 1.0 is
      used for the rotational entropy correction.

Note: Rotational entropy computed according to Herzberg
Infrared and Raman Spectra, Chapter V,1, Van Nostrand Reinhold, 1945
Point Group:  C1, Symmetry Number:   1
Rotational constants in cm-1:     0.031640     0.024654     0.024638

Vibrational entropy computed according to the QRRHO of S. Grimme
Chem.Eur.J. 2012 18 9955

-------
ENTROPY
-------

The entropy contributions are T*S = T*(S(el)+S(vib)+S(rot)+S(trans))
     S(el)   - electronic entropy
     S(vib)  - vibrational entropy
     S(rot)  - rotational entropy
     S(trans)- translational entropy
The entropies will be listed as mutliplied by the temperature to get
units of energy

Electronic entropy                ...      0.00000000 Eh      0.00 kcal/mol
Vibrational entropy               ...      0.01396099 Eh      8.76 kcal/mol
Rotational entropy                ...      0.01463753 Eh      9.19 kcal/mol
Translational entropy             ...      0.01994970 Eh     12.52 kcal/mol
-----------------------------------------------------------------------
Final entropy term                ...      0.04854822 Eh     30.46 kcal/mol

In case the symmetry of your molecule has not been determined correctly
or in case you have a reason to use a different symmetry number we print
out the resulting rotational entropy values for sn=1,12 :
 --------------------------------------------------------
|  sn= 1 | S(rot)=       0.01463753 Eh      9.19 kcal/mol|
|  sn= 2 | S(rot)=       0.01398307 Eh      8.77 kcal/mol|
|  sn= 3 | S(rot)=       0.01360024 Eh      8.53 kcal/mol|
|  sn= 4 | S(rot)=       0.01332862 Eh      8.36 kcal/mol|
|  sn= 5 | S(rot)=       0.01311793 Eh      8.23 kcal/mol|
|  sn= 6 | S(rot)=       0.01294578 Eh      8.12 kcal/mol|
|  sn= 7 | S(rot)=       0.01280024 Eh      8.03 kcal/mol|
|  sn= 8 | S(rot)=       0.01267416 Eh      7.95 kcal/mol|
|  sn= 9 | S(rot)=       0.01256295 Eh      7.88 kcal/mol|
|  sn=10 | S(rot)=       0.01246347 Eh      7.82 kcal/mol|
|  sn=11 | S(rot)=       0.01237348 Eh      7.76 kcal/mol|
|  sn=12 | S(rot)=       0.01229133 Eh      7.71 kcal/mol|
 --------------------------------------------------------

                             ****ORCA TERMINATED NORMALLY****
TOTAL RUN TIME: 0 days 0 hours 14 minutes 17 seconds 581 msec
