                         Program Version 4.2.1 -  RELEASE  -
|  1> ! revPBE D4 gCP(DFT/SVP) def2-SVP Opt Freq TightOpt TightSCF Grid4 FinalGrid5 LargePrint
|  2>
|  3> %pal
|  4>  nprocs 4
|  5> end
|  6>
|  7> *xyz 0 1
|  8>   B      0.008024    1.967276    0.000008
|  9>   H      1.157843    1.744483    0.330357
| 10>   H     -0.565118    1.207757   -0.758604
| 11>   H     -0.568604    2.949606    0.428239
| 12> *
| 13>
| 14>                          ****END OF INPUT****
 Total Charge           Charge          ....    0
 Multiplicity           Mult            ....    1
 Number of Electrons    NEL             ....    8
Dispersion correction           -0.002609989
FINAL SINGLE POINT ENERGY       -26.567417927354
Dispersion correction            ...
Dispersion correction           -0.002609466
FINAL SINGLE POINT ENERGY       -26.567424061306
Dispersion correction            ...
Dispersion correction           -0.002609403
FINAL SINGLE POINT ENERGY       -26.567424166449
Dispersion correction            ...
                    ***********************HURRAY********************

CARTESIAN COORDINATES (ANGSTROEM)
---------------------------------
  B      0.008148    1.967468   -0.000274
  H      1.159936    1.744006    0.331064
  H     -0.566223    1.206294   -0.759910
  H     -0.569715    2.951354    0.429120

 Multiplicity           Mult            ....    1
 Number of Electrons    NEL             ....    8
 Basis Dimension        Dim             ....   29

ORBITAL ENERGIES
----------------

  NO   OCC          E(Eh)            E(eV)
   0   2.0000      -6.556860      -178.4212
   1   2.0000      -0.453186       -12.3318
   2   2.0000      -0.306195        -8.3320
   3   2.0000      -0.306194        -8.3320
   4   0.0000      -0.106016        -2.8848
   5   0.0000       0.120407         3.2764
   6   0.0000       0.120416         3.2767
   7   0.0000       0.124119         3.3775
   8   0.0000       0.179594         4.8870

------------------
MOLECULAR ORBITALS
------------------
                      0         1         2         3         4         5
                  -6.55686  -0.45319  -0.30620  -0.30619  -0.10602   0.12041
                   2.00000   2.00000   2.00000   2.00000   0.00000   0.00000
                  --------  --------  --------  --------  --------  --------
  0B   1s        -0.989424 -0.241870  0.000000  0.000000 -0.000105  0.000100
  0B   2s         0.041534 -0.487889  0.000001 -0.000001 -0.000265  0.000405
  0B   3s        -0.022587 -0.168035 -0.000001  0.000006 -0.000521  0.001325
  0B   1pz        0.000000  0.000049 -0.230996  0.126505 -0.446500 -0.050627
  0B   1px        0.000000 -0.000018  0.021301  0.397515  0.187313 -0.303641
  0B   1py       -0.000000 -0.000034 -0.351699 -0.059011  0.304608  0.112444
  0B   2pz       -0.000001 -0.000001  0.073377 -0.040185  0.428203  0.322790
  0B   2px        0.000000  0.000004 -0.006768 -0.126277 -0.179627  1.933679
  0B   2py        0.000001  0.000003  0.111719  0.018748 -0.292156 -0.715976
  0B   1dz2      -0.000939  0.001776 -0.004380  0.003877 -0.000002  0.008405
  0B   1dxz       0.001005 -0.001900 -0.009418 -0.003975  0.000002 -0.019527
  0B   1dyz       0.001634 -0.003088 -0.001629  0.009010  0.000002  0.026218
  0B   1dx2y2     0.000347 -0.000655 -0.003276 -0.013185 -0.000001 -0.042812
  0B   1dxy      -0.000686  0.001296 -0.013344  0.003670 -0.000002  0.000758
  1H   1s        -0.004051 -0.207411 -0.019162 -0.369685  0.000125 -0.158617
  1H   2s         0.004327 -0.048699 -0.009081 -0.175181  0.000129 -2.172448
  1H   1pz        0.000155  0.005090  0.004760  0.002683  0.017087 -0.006868
  1H   1px        0.000538  0.017696  0.000512  0.010151 -0.007177 -0.010812
  1H   1py       -0.000105 -0.003432  0.006661 -0.002322 -0.011656 -0.003382
  2H   1s        -0.004051 -0.207411 -0.310576  0.201437  0.000127  0.051522
  2H   2s         0.004327 -0.048694 -0.147170  0.095455  0.000124  0.705285
  2H   1pz       -0.000355 -0.011672 -0.005416  0.003965  0.017094 -0.003790
  2H   1px       -0.000268 -0.008824 -0.007907 -0.002873 -0.007165  0.024307
  2H   1py       -0.000356 -0.011694 -0.003087  0.007587 -0.011653 -0.020512
  3H   1s        -0.004051 -0.207410  0.329738  0.168249  0.000123  0.106943
  3H   2s         0.004327 -0.048698  0.156253  0.079722  0.000177  1.465018
  3H   1pz        0.000201  0.006595 -0.001453 -0.005495  0.017086  0.015731
  3H   1px       -0.000270 -0.008878  0.007588 -0.003649 -0.007165  0.016911
  3H   1py        0.000459  0.015117 -0.006784 -0.005805 -0.011665  0.012639
                      6         7         8         9        10        11
                   0.12042   0.12412   0.17959   0.23611   0.23612   0.29480
                   0.00000   0.00000   0.00000   0.00000   0.00000   0.00000
                  --------  --------  --------  --------  --------  --------
  0B   1s        -0.000051 -0.214128 -0.180490 -0.000011  0.000022  0.000057
  0B   2s        -0.000254 -0.860257 -1.303718 -0.000072  0.000155  0.000254
  0B   3s        -0.000126 -2.759448  3.444227  0.000144 -0.000373 -0.000286
  0B   1pz        0.198565  0.000101 -0.000156 -0.048952 -0.492271  0.806159
  0B   1px        0.060819 -0.000233 -0.000049  0.638736 -0.388734 -0.338232
  0B   1py        0.253589 -0.000094 -0.000009 -0.464655 -0.482497 -0.549991
  0B   2pz       -1.264050 -0.000505  0.000557 -0.066423 -0.668672  0.828199
  0B   2px       -0.386926  0.001281 -0.000266  0.867597 -0.527893 -0.347519
  0B   2py       -1.615000  0.000510 -0.000297 -0.631000 -0.655499 -0.564953
  0B   1dz2      -0.016399 -0.014380  0.014488  0.000541 -0.004307  0.000007
  0B   1dxz      -0.025635  0.015384 -0.015490 -0.006359 -0.004101  0.000006
  0B   1dyz      -0.012028  0.025043 -0.025194  0.004821 -0.004760 -0.000012
  0B   1dx2y2     0.000332  0.005287 -0.005345 -0.009427  0.003507  0.000007
  0B   1dxy      -0.043619 -0.010490  0.010582 -0.003335 -0.009693  0.000012
  1H   1s         0.032000  0.122470 -0.168644 -0.226805  0.138540 -0.000102
  1H   2s         0.438776  1.480858 -0.802752  0.121495 -0.074227  0.000123
  1H   1pz       -0.017894  0.004325  0.003114  0.008747 -0.006414 -0.014437
  1H   1px        0.002244  0.015095  0.010767  0.032059 -0.019589  0.006079
  1H   1py       -0.027615 -0.002915 -0.002097 -0.006913  0.002656  0.009853
  2H   1s        -0.153314  0.122598 -0.168681 -0.006561 -0.265665 -0.000123
  2H   2s        -2.099927  1.482581 -0.802493  0.003571  0.142396  0.000133
  2H   1pz        0.006394 -0.009976 -0.007099 -0.000694 -0.024766 -0.014459
  2H   1px        0.013985 -0.007512 -0.005386  0.000858 -0.018756  0.006045
  2H   1py        0.000808 -0.009974 -0.007134 -0.001544 -0.024795  0.009840
  3H   1s         0.121330  0.122581 -0.168687  0.233356  0.127191 -0.000184
  3H   2s         1.661633  1.482334 -0.802779 -0.125152 -0.067936  0.000112
  3H   1pz       -0.008376  0.005620  0.004032 -0.011898 -0.007433 -0.014437
  3H   1px       -0.022312 -0.007554 -0.005408  0.017186  0.007852  0.006051
  3H   1py        0.001417  0.012912  0.009194 -0.027983 -0.015711  0.009868
                     12        13        14        15        16        17
                   0.60761   0.60762   0.61429   0.86821   0.86821   1.22411
                   0.00000   0.00000   0.00000   0.00000   0.00000   0.00000
                  --------  --------  --------  --------  --------  --------
  0B   1s         0.000078  0.000014 -0.171022 -0.000002  0.000002 -0.000001
  0B   2s         0.000343  0.000055 -0.752919 -0.000009  0.000007 -0.000004
  0B   3s        -0.001727 -0.000329  3.812587  0.000024 -0.000021  0.000014
  0B   1pz       -0.127790  0.371949  0.000311 -0.000033 -0.000048 -0.154252
  0B   1px       -0.590412  0.069093 -0.000398  0.000045 -0.000072  0.033141
  0B   1py        0.175708  0.502676 -0.000094 -0.000077 -0.000028 -0.246485
  0B   2pz       -0.346054  1.007130  0.000780  0.000043  0.000078  0.255578
  0B   2px       -1.598676  0.187092 -0.001062 -0.000069  0.000124 -0.054935
  0B   2py        0.475778  1.361171 -0.000215  0.000108  0.000035  0.408412
  0B   1dz2       0.062672 -0.101109 -0.106116 -0.355611 -0.558035 -0.171948
  0B   1dxz      -0.112310 -0.175208  0.113456  0.390346 -0.355295 -0.404619
  0B   1dyz       0.175038 -0.063723  0.184700 -0.348066  0.048847 -0.042899
  0B   1dx2y2    -0.275723 -0.020241  0.039038 -0.461193  0.089740 -0.173384
  0B   1dxy       0.027715 -0.280307 -0.077461 -0.003372  0.405718 -0.547382
  1H   1s        -0.887785  0.105330  0.738632  0.000083 -0.000127  0.086617
  1H   2s         2.305508 -0.273590 -1.867454 -0.000000 -0.000020 -0.004790
  1H   1pz       -0.035381 -0.026988  0.020154  0.121870 -0.197264 -0.206564
  1H   1px       -0.110214  0.013177  0.070163 -0.051232  0.082801  0.020553
  1H   1py        0.016035 -0.047676 -0.013598 -0.083435  0.134392 -0.315347
  2H   1s         0.352100 -0.821333  0.739101  0.000080  0.000123  0.587242
  2H   2s        -0.914403  2.132992 -1.868695 -0.000008  0.000031 -0.032542
  2H   1pz       -0.031180  0.066240 -0.046331  0.109783  0.204329 -0.099834
  2H   1px        0.019591  0.068631 -0.034982 -0.045825 -0.085768  0.118996
  2H   1py       -0.057800  0.055009 -0.046400 -0.075003 -0.139228 -0.219010
  3H   1s         0.534671  0.715783  0.739335 -0.000137 -0.000013 -0.673849
  3H   2s        -1.388564 -1.858883 -1.869306 -0.000029  0.000018  0.037313
  3H   1pz        0.047526  0.016136  0.026170 -0.231752 -0.007224 -0.134784
  3H   1px        0.002694 -0.071513 -0.035220  0.097202  0.002731 -0.044744
  3H   1py        0.067937  0.067532  0.060021  0.158201  0.004754 -0.170617
                     18        19        20        21        22        23
                   1.22411   1.24595   1.36363   1.56927   1.76829   1.76830
                   0.00000   0.00000   0.00000   0.00000   0.00000   0.00000
                  --------  --------  --------  --------  --------  --------
  0B   1s        -0.000001 -0.051493  0.000000 -0.000034 -0.000000  0.000000
  0B   2s         0.000001 -0.091295 -0.000003 -0.000048 -0.000002  0.000002
  0B   3s        -0.000028 -0.285183 -0.000011  0.000616  0.000010  0.000003
  0B   1pz        0.098358  0.000281  0.000003 -0.230617  0.000052 -0.000254
  0B   1px        0.274531 -0.000125  0.000002  0.096746  0.000383 -0.000094
  0B   1py       -0.024643 -0.000194  0.000006  0.157329 -0.000151 -0.000315
  0B   2pz       -0.162978 -0.000255 -0.000006  0.166221 -0.000089  0.000411
  0B   2px       -0.454842  0.000117 -0.000006 -0.069731 -0.000626  0.000154
  0B   2py        0.040795  0.000167 -0.000006 -0.113401  0.000250  0.000508
  0B   1dz2       0.173977  0.429466 -0.000004  0.000513  0.139188 -0.660709
  0B   1dxz      -0.140135 -0.459378  0.000008 -0.000552  0.539134  0.020432
  0B   1dyz       0.381019 -0.747055  0.000015 -0.000892 -0.289431 -0.212759
  0B   1dx2y2    -0.541654 -0.158448  0.000001 -0.000185 -0.399404 -0.264162
  0B   1dxy       0.190645  0.313393  0.000008  0.000380 -0.292359  0.294638
  1H   1s         0.728112  0.464194 -0.000004  0.000396 -0.000612  0.000147
  1H   2s        -0.040362 -0.079925  0.000013 -0.000449  0.001093 -0.000271
  1H   1pz        0.073087  0.024857  0.327178 -0.486038 -0.655419  0.160918
  1H   1px        0.167423  0.084903 -0.000962  0.204276  0.274723 -0.067671
  1H   1py        0.004791 -0.016754  0.480172  0.331580  0.446873 -0.110873
  2H   1s        -0.439048  0.464221 -0.000026  0.000394  0.000174 -0.000601
  2H   2s         0.024327 -0.079934  0.000015 -0.000449 -0.000322  0.001073
  2H   1pz        0.052632 -0.055719 -0.026975 -0.486369  0.187751 -0.648072
  2H   1px        0.299284 -0.042589  0.475932  0.203773 -0.078084  0.272204
  2H   1py       -0.107257 -0.056480 -0.332194  0.331435 -0.128684  0.442142
  3H   1s        -0.289027  0.464217  0.000001  0.000399  0.000436  0.000456
  3H   2s         0.016050 -0.079920  0.000006 -0.000447 -0.000782 -0.000809
  3H   1pz        0.155603  0.032091 -0.300186 -0.486021  0.467796  0.486467
  3H   1px        0.318481 -0.042863 -0.474957  0.203777 -0.195586 -0.204783
  3H   1py        0.032002  0.072399 -0.147946  0.331945 -0.318600 -0.332128
                     24        25        26        27        28
                   1.96642   1.96643   2.35761   2.50108   2.50108
                   0.00000   0.00000   0.00000   0.00000   0.00000
                  --------  --------  --------  --------  --------
  0B   1s         0.000004  0.000000  0.256157 -0.000005  0.000012
  0B   2s         0.000034  0.000001  1.759802 -0.000036  0.000078
  0B   3s         0.000021 -0.000001  0.736220 -0.000007  0.000027
  0B   1pz        0.132853 -0.257155 -0.000565 -0.847046  0.176123
  0B   1px        0.437302  0.012852  0.000153 -0.314021  1.269456
  0B   1py       -0.074169 -0.384847  0.000376 -1.048522 -0.522463
  0B   2pz       -0.154084  0.298262  0.000165  0.107436 -0.022337
  0B   2px       -0.507212 -0.014894 -0.000047  0.039827 -0.161011
  0B   2py        0.086040  0.446357 -0.000117  0.132991  0.066268
  0B   1dz2      -0.121689  0.144884 -0.329769 -0.424481  0.193807
  0B   1dxz       0.133997  0.299019  0.352731 -0.626213 -0.522823
  0B   1dyz      -0.287618  0.059937  0.573586 -0.334224  0.649768
  0B   1dx2y2     0.426644  0.095639  0.121697  0.057077 -1.082642
  0B   1dxy      -0.106734  0.430996 -0.240648 -1.104011 -0.030634
  1H   1s        -0.146882 -0.004053 -0.533921 -0.266073  1.067615
  1H   2s         0.745766  0.020595 -0.517710 -0.075582  0.303285
  1H   1pz       -0.101642 -0.466495  0.237045  0.286685 -0.270233
  1H   1px       -0.401449 -0.009732  0.823737  0.278039 -1.118226
  1H   1py        0.095960 -0.677859 -0.159862  0.249011  0.292501
  2H   1s         0.076947 -0.125160 -0.533854  1.057648 -0.303420
  2H   2s        -0.390743  0.635574 -0.517663  0.300473 -0.086206
  2H   1pz       -0.171632  0.206183 -0.543166  0.735327 -0.192697
  2H   1px        0.469803  0.523240 -0.410779  0.467021 -0.456068
  2H   1py       -0.539481 -0.021154 -0.544376  0.791648 -0.002289
  3H   1s         0.069921  0.129215 -0.533865 -0.791543 -0.764278
  3H   2s        -0.355069 -0.656170 -0.517661 -0.224869 -0.217136
  3H   1pz        0.444781 -0.071646  0.307139  0.444730  0.157965
  3H   1px        0.496203 -0.496927 -0.413281 -0.201308 -0.623874
  3H   1py        0.347759  0.202226  0.703565  0.774958  0.614481

MULLIKEN ATOMIC CHARGES
-----------------------
   0 B :   -0.005218
   1 H :    0.001737
   2 H :    0.001743
   3 H :    0.001738
Sum of atomic charges:    0.0000000

LOEWDIN ATOMIC CHARGES
----------------------
   0 B :    0.078404
   1 H :   -0.026135
   2 H :   -0.026134
   3 H :   -0.026135

  Mayer bond orders larger than 0.100000
B(  0-B ,  1-H ) :   0.9876 B(  0-B ,  2-H ) :   0.9876 B(  0-B ,  3-H ) :   0.9876

Dispersion correction           -0.002609382
FINAL SINGLE POINT ENERGY       -26.567424137045

DIPOLE MOMENT
-------------
                                X             Y             Z
Electronic contribution:      0.00048       0.00079      -0.00116
Nuclear contribution   :     -0.00035      -0.00059       0.00086
                        -----------------------------------------
Total Dipole Moment    :      0.00013       0.00020      -0.00029
                        -----------------------------------------
Magnitude (a.u.)       :      0.00037
Magnitude (Debye)      :      0.00095

Dispersion correction in the Hessian             ...
Dispersion correction Hessian from Numerical Differentiation:

VIBRATIONAL FREQUENCIES
-----------------------

Scaling factor for frequencies =  1.000000000  (already applied!)

   0:         0.00 cm**-1
   1:         0.00 cm**-1
   2:         0.00 cm**-1
   3:         0.00 cm**-1
   4:         0.00 cm**-1
   5:         0.00 cm**-1
   6:      1106.42 cm**-1
   7:      1135.54 cm**-1
   8:      1135.57 cm**-1
   9:      2463.74 cm**-1
  10:      2612.36 cm**-1
  11:      2612.37 cm**-1

IR SPECTRUM
-----------

 Mode    freq (cm**-1)   T**2         TX         TY         TZ
-------------------------------------------------------------------
   6:      1106.42   76.338133  ( -2.860859  -4.651043   6.820661)
   7:      1135.54   10.880750  (  0.651428   2.539281   2.002110)
   8:      1135.57   10.887767  ( -3.049382   1.163170  -0.485870)
   9:      2463.74    0.000001  (  0.000667  -0.000941   0.000271)
  10:      2612.36  123.057433  ( -3.741792   9.290565   4.768840)
  11:      2612.37  123.044145  (  9.790542   1.358484   5.034278)

--------------------------
THERMOCHEMISTRY AT 298.15K
--------------------------

Temperature         ... 298.15 K
Pressure            ... 1.00 atm
Total Mass          ... 13.83 AMU

Throughout the following assumptions are being made:
  (1) The electronic state is orbitally nondegenerate
  (2) There are no thermally accessible electronically excited states
  (3) Hindered rotations indicated by low frequency modes are not
      treated as such but are treated as vibrations and this may
      cause some error
  (4) All equations used are the standard statistical mechanics
      equations for an ideal gas
  (5) All vibrations are strictly harmonic

freq.    1106.42  E(vib)   ...       0.02
freq.    1135.54  E(vib)   ...       0.01
freq.    1135.57  E(vib)   ...       0.01
freq.    2463.74  E(vib)   ...       0.00
freq.    2612.36  E(vib)   ...       0.00
freq.    2612.37  E(vib)   ...       0.00

------------
INNER ENERGY
------------

The inner energy is: U= E(el) + E(ZPE) + E(vib) + E(rot) + E(trans)
    E(el)   - is the total energy from the electronic structure calculation
              = E(kin-el) + E(nuc-el) + E(el-el) + E(nuc-nuc)
    E(ZPE)  - the the zero temperature vibrational energy from the frequency calculation
    E(vib)  - the the finite temperature correction to E(ZPE) due to population
              of excited vibrational states
    E(rot)  - is the rotational thermal energy
    E(trans)- is the translational thermal energy

Summary of contributions to the inner energy U:
Electronic energy                ...    -26.56742414 Eh
Zero point energy                ...      0.02521022 Eh      15.82 kcal/mol
Thermal vibrational correction   ...      0.00006781 Eh       0.04 kcal/mol
Thermal rotational correction    ...      0.00141627 Eh       0.89 kcal/mol
Thermal translational correction ...      0.00141627 Eh       0.89 kcal/mol
-----------------------------------------------------------------------
Total thermal energy                    -26.53931356 Eh

Summary of corrections to the electronic energy:
(perhaps to be used in another calculation)
Total thermal correction                  0.00290035 Eh       1.82 kcal/mol
Non-thermal (ZPE) correction              0.02521022 Eh      15.82 kcal/mol
-----------------------------------------------------------------------
Total correction                          0.02811057 Eh      17.64 kcal/mol

--------
ENTHALPY
--------

The enthalpy is H = U + kB*T
                kB is Boltzmann's constant
Total free energy                 ...    -26.53931356 Eh
Thermal Enthalpy correction       ...      0.00094421 Eh       0.59 kcal/mol
-----------------------------------------------------------------------
Total Enthalpy                    ...    -26.53836936 Eh

Note: Only C1 symmetry has been detected, increase convergence thresholds
      if your molecule has a higher symmetry. Symmetry factor of 1.0 is
      used for the rotational entropy correction.

Note: Rotational entropy computed according to Herzberg
Infrared and Raman Spectra, Chapter V,1, Van Nostrand Reinhold, 1945
Point Group:  C1, Symmetry Number:   1
Rotational constants in cm-1:     7.501210     7.501096     3.750577

Vibrational entropy computed according to the QRRHO of S. Grimme
Chem.Eur.J. 2012 18 9955

-------
ENTROPY
-------

The entropy contributions are T*S = T*(S(el)+S(vib)+S(rot)+S(trans))
     S(el)   - electronic entropy
     S(vib)  - vibrational entropy
     S(rot)  - rotational entropy
     S(trans)- translational entropy
The entropies will be listed as mutliplied by the temperature to get
units of energy

Electronic entropy                ...      0.00000000 Eh      0.00 kcal/mol
Vibrational entropy               ...      0.00008029 Eh      0.05 kcal/mol
Rotational entropy                ...      0.00698417 Eh      4.38 kcal/mol
Translational entropy             ...      0.01606980 Eh     10.08 kcal/mol
-----------------------------------------------------------------------
Final entropy term                ...      0.02313426 Eh     14.52 kcal/mol

In case the symmetry of your molecule has not been determined correctly
or in case you have a reason to use a different symmetry number we print
out the resulting rotational entropy values for sn=1,12 :
 --------------------------------------------------------
|  sn= 1 | S(rot)=       0.00698417 Eh      4.38 kcal/mol|
|  sn= 2 | S(rot)=       0.00632971 Eh      3.97 kcal/mol|
|  sn= 3 | S(rot)=       0.00594688 Eh      3.73 kcal/mol|
|  sn= 4 | S(rot)=       0.00567526 Eh      3.56 kcal/mol|
|  sn= 5 | S(rot)=       0.00546457 Eh      3.43 kcal/mol|
|  sn= 6 | S(rot)=       0.00529243 Eh      3.32 kcal/mol|
|  sn= 7 | S(rot)=       0.00514688 Eh      3.23 kcal/mol|
|  sn= 8 | S(rot)=       0.00502080 Eh      3.15 kcal/mol|
|  sn= 9 | S(rot)=       0.00490959 Eh      3.08 kcal/mol|
|  sn=10 | S(rot)=       0.00481011 Eh      3.02 kcal/mol|
|  sn=11 | S(rot)=       0.00472012 Eh      2.96 kcal/mol|
|  sn=12 | S(rot)=       0.00463797 Eh      2.91 kcal/mol|
 --------------------------------------------------------

-------------------
GIBBS FREE ENERGY
-------------------

The Gibbs free energy is G = H - T*S

Total enthalpy                    ...    -26.53836936 Eh
Total entropy correction          ...     -0.02313426 Eh    -14.52 kcal/mol
-----------------------------------------------------------------------
Final Gibbs free energy         ...    -26.56150362 Eh

For completeness - the Gibbs free energy minus the electronic energy
G-E(el)                           ...      0.00592052 Eh      3.72 kcal/mol

                             ****ORCA TERMINATED NORMALLY****
TOTAL RUN TIME: 0 days 0 hours 0 minutes 24 seconds 48 msec
