                         Program Version 4.2.1 -  RELEASE  -
|  1> ! B97-3c Opt Freq TightOpt TightSCF
|  2>
|  3> %pal
|  4>  nprocs 4
|  5> end
|  6>
|  7> *xyz 0 1
|  8> Pt      -4.472668000     -1.122764000     -2.089989000
|  9> Cl      -6.747170000     -0.830282000     -2.537592000
| 10> Cl      -4.110303806     -1.717893033     -4.320230114
| 11> N       -4.806815000     -0.599937000     -0.142338000
| 12> H       -5.791113840     -0.387860970     -0.014243431
| 13> H       -4.249919470      0.208286508      0.108201003
| 14> N       -2.485479828     -1.374163869     -1.681573116
| 15> H       -2.355167656     -2.098500339     -0.985530916
| 16> H       -2.089128983     -0.516055041     -1.317007560
| 17> H       -1.996581553     -1.630310713     -2.533434652
| 18> H       -4.548895969     -1.360300447      0.475426347
| 19> *
| 20>
| 21>                          ****END OF INPUT****
 Total Charge           Charge          ....    0
 Multiplicity           Mult            ....    1
 Number of Electrons    NEL             ....   72
Dispersion correction           -0.029513427
FINAL SINGLE POINT ENERGY     -1153.119435113342
Dispersion correction            ... done
Dispersion correction           -0.029127510
FINAL SINGLE POINT ENERGY     -1153.124720236550
Dispersion correction            ... done
Dispersion correction           -0.029236977
FINAL SINGLE POINT ENERGY     -1153.126200754376
Dispersion correction            ... done
FINAL SINGLE POINT ENERGY     -1153.124907478245
FINAL SINGLE POINT ENERGY     -1153.126764990706
FINAL SINGLE POINT ENERGY     -1153.124627634521
FINAL SINGLE POINT ENERGY     -1153.126990246884
FINAL SINGLE POINT ENERGY     -1153.126940198926
FINAL SINGLE POINT ENERGY     -1153.127021398089
FINAL SINGLE POINT ENERGY     -1153.127021617087
Dispersion correction           -0.029277841
FINAL SINGLE POINT ENERGY     -1153.127022349069
Dispersion correction            ... done
Dispersion correction           -0.029278183
FINAL SINGLE POINT ENERGY     -1153.127022721849
Dispersion correction            ... done
                    ***********************HURRAY********************

CARTESIAN COORDINATES (ANGSTROEM)
---------------------------------
  Pt    -4.434490   -1.111494   -2.029888
  Cl    -6.693794   -0.797699   -2.392908
  Cl    -3.964668   -1.699757   -4.213001
  N     -4.918743   -0.569422   -0.071904
  H     -5.923816   -0.401093   -0.126130
  H     -4.473907    0.282723    0.247172
  N     -2.385223   -1.411202   -1.761579
  H     -2.153128   -2.158237   -1.118243
  H     -1.873431   -0.579454   -1.493154
  H     -2.073317   -1.687419   -2.693239
  H     -4.758728   -1.296728    0.614562

 Multiplicity           Mult            ....    1
 Number of Electrons    NEL             ....   72
 Basis Dimension        Dim             ....  136

ORBITAL ENERGIES
----------------

  NO   OCC          E(Eh)            E(eV)
   0   2.0000    -100.572138     -2736.7070
   1   2.0000    -100.572090     -2736.7057
   2   2.0000     -14.071215      -382.8972
   3   2.0000     -14.071134      -382.8950
   4   2.0000      -9.158079      -249.2040
   5   2.0000      -9.158039      -249.2029
   6   2.0000      -6.991262      -190.2419
   7   2.0000      -6.991196      -190.2401
   8   2.0000      -6.983177      -190.0219
   9   2.0000      -6.983161      -190.0215
  10   2.0000      -6.982906      -190.0145
  11   2.0000      -6.982871      -190.0136
  12   2.0000      -3.782083      -102.9157
  13   2.0000      -2.080217       -56.6056
  14   2.0000      -2.074568       -56.4519
  15   2.0000      -2.032237       -55.3000
  16   2.0000      -0.876164       -23.8416
  17   2.0000      -0.872593       -23.7445
  18   2.0000      -0.679269       -18.4839
  19   2.0000      -0.672800       -18.3078
  20   2.0000      -0.510918       -13.9028
  21   2.0000      -0.509262       -13.8577
  22   2.0000      -0.507578       -13.8119
  23   2.0000      -0.498368       -13.5613
  24   2.0000      -0.407664       -11.0931
  25   2.0000      -0.403872       -10.9899
  26   2.0000      -0.290909        -7.9160
  27   2.0000      -0.287986        -7.8365
  28   2.0000      -0.274999        -7.4831
  29   2.0000      -0.258597        -7.0368
  30   2.0000      -0.257541        -7.0080
  31   2.0000      -0.217415        -5.9162
  32   2.0000      -0.201062        -5.4712
  33   2.0000      -0.197314        -5.3692
  34   2.0000      -0.190818        -5.1924
  35   2.0000      -0.183763        -5.0004
  36   0.0000      -0.081390        -2.2147
  37   0.0000      -0.041989        -1.1426
  38   0.0000       0.002710         0.0738
  39   0.0000       0.015556         0.4233
  40   0.0000       0.039965         1.0875

MULLIKEN ATOMIC CHARGES
-----------------------
   0 Pt:    0.314742
   1 Cl:   -0.363836
   2 Cl:   -0.363763
   3 N :   -0.888691
   4 H :    0.365197
   5 H :    0.365343
   6 N :   -0.889344
   7 H :    0.365080
   8 H :    0.365259
   9 H :    0.364849
  10 H :    0.365165
Sum of atomic charges:    0.0000000

LOEWDIN ATOMIC CHARGES
----------------------
   0 Pt:   -0.509030
   1 Cl:   -0.068080
   2 Cl:   -0.067798
   3 N :   -0.542857
   4 H :    0.289755
   5 H :    0.287747
   6 N :   -0.542717
   7 H :    0.287711
   8 H :    0.287823
   9 H :    0.289710
  10 H :    0.287735

  Mayer bond orders larger than 0.100000
B(  0-Pt,  1-Cl) :   0.8013 B(  0-Pt,  2-Cl) :   0.8005 B(  0-Pt,  3-N ) :   0.3939
B(  0-Pt,  6-N ) :   0.3946 B(  1-Cl,  4-H ) :   0.1112 B(  2-Cl,  9-H ) :   0.1115
B(  3-N ,  4-H ) :   0.7880 B(  3-N ,  5-H ) :   0.8404 B(  3-N , 10-H ) :   0.8405
B(  6-N ,  7-H ) :   0.8406 B(  6-N ,  8-H ) :   0.8404 B(  6-N ,  9-H ) :   0.7881

Dispersion correction           -0.029278106
FINAL SINGLE POINT ENERGY     -1153.127022867639

DIPOLE MOMENT
-------------
                                X             Y             Z
Electronic contribution:     12.71394       1.92443      18.09292
Nuclear contribution   :    -10.29229      -1.55104     -14.65132
                        -----------------------------------------
Total Dipole Moment    :      2.42165       0.37339       3.44161
                        -----------------------------------------
Magnitude (a.u.)       :      4.22475
Magnitude (Debye)      :     10.73845

Dispersion correction in the Hessian             ... done   (      0.5 sec)

VIBRATIONAL FREQUENCIES
-----------------------

Scaling factor for frequencies =  1.000000000  (already applied!)

   0:         0.00 cm**-1
   1:         0.00 cm**-1
   2:         0.00 cm**-1
   3:         0.00 cm**-1
   4:         0.00 cm**-1
   5:         0.00 cm**-1
   6:       114.54 cm**-1
   7:       130.17 cm**-1
   8:       136.06 cm**-1
   9:       150.58 cm**-1
  10:       159.34 cm**-1
  11:       221.89 cm**-1
  12:       226.92 cm**-1
  13:       331.08 cm**-1
  14:       342.87 cm**-1
  15:       435.69 cm**-1
  16:       446.21 cm**-1
  17:       728.99 cm**-1
  18:       749.19 cm**-1
  19:       759.58 cm**-1
  20:       795.39 cm**-1
  21:      1283.14 cm**-1
  22:      1290.79 cm**-1
  23:      1664.87 cm**-1
  24:      1672.75 cm**-1
  25:      1696.31 cm**-1
  26:      1703.55 cm**-1
  27:      3336.84 cm**-1
  28:      3337.80 cm**-1
  29:      3475.23 cm**-1
  30:      3475.89 cm**-1
  31:      3529.81 cm**-1
  32:      3529.96 cm**-1

IR SPECTRUM
-----------

 Mode    freq (cm**-1)   T**2         TX         TY         TZ
-------------------------------------------------------------------
   6:       114.54    0.006780  ( -0.038186  -0.055832  -0.046947)
   7:       130.17    0.288483  (  0.114046   0.518202  -0.083332)
   8:       136.06    0.015978  ( -0.074824  -0.007384  -0.101609)
   9:       150.58    0.144786  (  0.134175  -0.188566   0.302036)
  10:       159.34   15.639834  ( -0.681047  -3.788851   0.905879)
  11:       221.89   25.319038  ( -2.903224  -0.440026  -4.086160)
  12:       226.92    0.782895  ( -0.574310   0.253691   0.623461)
  13:       331.08   26.587889  (  4.117520  -1.380044  -2.780179)
  14:       342.87   24.515948  ( -2.864805  -0.437727  -4.014627)
  15:       435.69    8.416704  ( -2.302090   0.777275   1.585222)
  16:       446.21    1.246231  (  0.719205   0.069633   0.850956)
  17:       728.99    0.003529  (  0.035258  -0.004763   0.047574)
  18:       749.19   12.272532  (  0.613136   3.344791  -0.842001)
  19:       759.58    0.322499  (  0.323481  -0.361630  -0.295097)
  20:       795.39   71.068397  (  4.827615   0.752785   6.869923)
  21:      1283.14  137.895099  (  9.183770  -3.194218  -6.584105)
  22:      1290.79   80.104424  (  5.524448   0.662996   7.010373)
  23:      1664.87   37.889159  (  4.788904  -1.787464  -3.429363)
  24:      1672.75   16.175688  (  2.560267   0.281474   3.088931)
  25:      1696.31    0.019360  ( -0.061595  -0.058384  -0.110261)
  26:      1703.55   39.429096  (  1.145898   5.996454  -1.469200)
  27:      3336.84    4.803065  (  0.424767   0.421907   2.108230)
  28:      3337.80   78.752787  ( -5.235359  -0.734939  -7.127669)
  29:      3475.23    4.152063  ( -0.998066   0.579853   1.679196)
  30:      3475.89   33.333894  ( -3.523635  -0.435800  -4.552798)
  31:      3529.81   16.416007  (  0.697170   3.887802  -0.902748)
  32:      3529.96   17.605848  ( -0.708961  -4.026272   0.944645)

--------------------------
THERMOCHEMISTRY AT 298.15K
--------------------------

Temperature         ... 298.15 K
Pressure            ... 1.00 atm
Total Mass          ... 300.06 AMU

Throughout the following assumptions are being made:
  (1) The electronic state is orbitally nondegenerate
  (2) There are no thermally accessible electronically excited states
  (3) Hindered rotations indicated by low frequency modes are not
      treated as such but are treated as vibrations and this may
      cause some error
  (4) All equations used are the standard statistical mechanics
      equations for an ideal gas
  (5) All vibrations are strictly harmonic

freq.     114.54  E(vib)   ...       0.44
freq.     130.17  E(vib)   ...       0.43
freq.     136.06  E(vib)   ...       0.42
freq.     150.58  E(vib)   ...       0.40
freq.     159.34  E(vib)   ...       0.39
freq.     221.89  E(vib)   ...       0.33
freq.     226.92  E(vib)   ...       0.33
freq.     331.08  E(vib)   ...       0.24
freq.     342.87  E(vib)   ...       0.23
freq.     435.69  E(vib)   ...       0.17
freq.     446.21  E(vib)   ...       0.17
freq.     728.99  E(vib)   ...       0.06
freq.     749.19  E(vib)   ...       0.06
freq.     759.58  E(vib)   ...       0.06
freq.     795.39  E(vib)   ...       0.05
freq.    1283.14  E(vib)   ...       0.01
freq.    1290.79  E(vib)   ...       0.01
freq.    1664.87  E(vib)   ...       0.00
freq.    1672.75  E(vib)   ...       0.00
freq.    1696.31  E(vib)   ...       0.00
freq.    1703.55  E(vib)   ...       0.00
freq.    3336.84  E(vib)   ...       0.00
freq.    3337.80  E(vib)   ...       0.00
freq.    3475.23  E(vib)   ...       0.00
freq.    3475.89  E(vib)   ...       0.00
freq.    3529.81  E(vib)   ...       0.00
freq.    3529.96  E(vib)   ...       0.00

------------
INNER ENERGY
------------

The inner energy is: U= E(el) + E(ZPE) + E(vib) + E(rot) + E(trans)
    E(el)   - is the total energy from the electronic structure calculation
              = E(kin-el) + E(nuc-el) + E(el-el) + E(nuc-nuc)
    E(ZPE)  - the the zero temperature vibrational energy from the frequency calculation
    E(vib)  - the the finite temperature correction to E(ZPE) due to population
              of excited vibrational states
    E(rot)  - is the rotational thermal energy
    E(trans)- is the translational thermal energy

Summary of contributions to the inner energy U:
Electronic energy                ...  -1153.12702287 Eh
Zero point energy                ...      0.08138862 Eh      51.07 kcal/mol
Thermal vibrational correction   ...      0.00606482 Eh       3.81 kcal/mol
Thermal rotational correction    ...      0.00141627 Eh       0.89 kcal/mol
Thermal translational correction ...      0.00141627 Eh       0.89 kcal/mol
-----------------------------------------------------------------------
Total thermal energy                  -1153.03673689 Eh

Summary of corrections to the electronic energy:
(perhaps to be used in another calculation)
Total thermal correction                  0.00889736 Eh       5.58 kcal/mol
Non-thermal (ZPE) correction              0.08138862 Eh      51.07 kcal/mol
-----------------------------------------------------------------------
Total correction                          0.09028598 Eh      56.66 kcal/mol

--------
ENTHALPY
--------

The enthalpy is H = U + kB*T
                kB is Boltzmann's constant
Total free energy                 ...  -1153.03673689 Eh
Thermal Enthalpy correction       ...      0.00094421 Eh       0.59 kcal/mol
-----------------------------------------------------------------------
Total Enthalpy                    ...  -1153.03579268 Eh

Note: Only C1 symmetry has been detected, increase convergence thresholds
      if your molecule has a higher symmetry. Symmetry factor of 1.0 is
      used for the rotational entropy correction.

Note: Rotational entropy computed according to Herzberg
Infrared and Raman Spectra, Chapter V,1, Van Nostrand Reinhold, 1945
Point Group:  C1, Symmetry Number:   1
Rotational constants in cm-1:     0.072871     0.056180     0.032053

Vibrational entropy computed according to the QRRHO of S. Grimme
Chem.Eur.J. 2012 18 9955

-------
ENTROPY
-------

The entropy contributions are T*S = T*(S(el)+S(vib)+S(rot)+S(trans))
     S(el)   - electronic entropy
     S(vib)  - vibrational entropy
     S(rot)  - rotational entropy
     S(trans)- translational entropy
The entropies will be listed as mutliplied by the temperature to get
units of energy

Electronic entropy                ...      0.00000000 Eh      0.00 kcal/mol
Vibrational entropy               ...      0.01085779 Eh      6.81 kcal/mol
Rotational entropy                ...      0.01373066 Eh      8.62 kcal/mol
Translational entropy             ...      0.02042745 Eh     12.82 kcal/mol
-----------------------------------------------------------------------
Final entropy term                ...      0.04501590 Eh     28.25 kcal/mol

In case the symmetry of your molecule has not been determined correctly
or in case you have a reason to use a different symmetry number we print
out the resulting rotational entropy values for sn=1,12 :
 --------------------------------------------------------
|  sn= 1 | S(rot)=       0.01373066 Eh      8.62 kcal/mol|
|  sn= 2 | S(rot)=       0.01307620 Eh      8.21 kcal/mol|
|  sn= 3 | S(rot)=       0.01269337 Eh      7.97 kcal/mol|
|  sn= 4 | S(rot)=       0.01242175 Eh      7.79 kcal/mol|
|  sn= 5 | S(rot)=       0.01221106 Eh      7.66 kcal/mol|
|  sn= 6 | S(rot)=       0.01203891 Eh      7.55 kcal/mol|
|  sn= 7 | S(rot)=       0.01189337 Eh      7.46 kcal/mol|
|  sn= 8 | S(rot)=       0.01176729 Eh      7.38 kcal/mol|
|  sn= 9 | S(rot)=       0.01165608 Eh      7.31 kcal/mol|
|  sn=10 | S(rot)=       0.01155660 Eh      7.25 kcal/mol|
|  sn=11 | S(rot)=       0.01146661 Eh      7.20 kcal/mol|
|  sn=12 | S(rot)=       0.01138446 Eh      7.14 kcal/mol|
 --------------------------------------------------------

-------------------
GIBBS FREE ENERGY
-------------------

The Gibbs free energy is G = H - T*S

Total enthalpy                    ...  -1153.03579268 Eh
Total entropy correction          ...     -0.04501590 Eh    -28.25 kcal/mol
-----------------------------------------------------------------------
Final Gibbs free energy         ...  -1153.08080858 Eh

For completeness - the Gibbs free energy minus the electronic energy
G-E(el)                           ...      0.04621429 Eh     29.00 kcal/mol

                             ****ORCA TERMINATED NORMALLY****
TOTAL RUN TIME: 0 days 0 hours 1 minutes 59 seconds 175 msec
