                         Program Version 4.2.1 -  RELEASE  -
|  1> ! B97-3c Opt Freq TightOpt TightSCF
|  2>
|  3> %pal
|  4>  nprocs 4
|  5> end
|  6>
|  7> *xyz 0 1
|  8> B       -2.8929579330      0.0312918323      0.0389223902
|  9> H       -3.4399707802      0.0166878064      1.1111251110
| 10> H       -3.7349894195      0.1615403304     -0.8114151476
| 11> B       -1.1711297258     -0.1120580466     -0.2361035221
| 12> H       -0.3290924695     -0.2423066853      0.6142275141
| 13> H       -0.6241250323     -0.0974530100     -1.3083103595
| 14> H       -1.9405626056      0.9431837658     -0.0385194380
| 15> H       -2.1235245737     -1.0239503794     -0.1586558855
| 16> *
| 17>
| 18>                          ****END OF INPUT****
 Total Charge           Charge          ....    0
 Multiplicity           Mult            ....    1
 Number of Electrons    NEL             ....   16
Dispersion correction           -0.008245278
FINAL SINGLE POINT ENERGY       -53.241138154551
Dispersion correction            ... done
Dispersion correction           -0.008314418
FINAL SINGLE POINT ENERGY       -53.244775023099
Dispersion correction            ... done
Dispersion correction           -0.008427585
FINAL SINGLE POINT ENERGY       -53.248359481714
Dispersion correction            ... done
FINAL SINGLE POINT ENERGY       -53.248735175701
FINAL SINGLE POINT ENERGY       -53.248853472488
FINAL SINGLE POINT ENERGY       -53.248873894527
Dispersion correction           -0.008416985
FINAL SINGLE POINT ENERGY       -53.248878669543
Dispersion correction            ... done
Dispersion correction           -0.008416519
FINAL SINGLE POINT ENERGY       -53.248879542276
Dispersion correction            ... done
                    ***********************HURRAY********************

CARTESIAN COORDINATES (ANGSTROEM)
---------------------------------
  B     -2.893268    0.031239    0.039021
  H     -3.303369    0.001333    1.153394
  H     -3.617620    0.155850   -0.894276
  B     -1.170820   -0.112005   -0.236204
  H     -0.446466   -0.236616    0.697092
  H     -0.760722   -0.082099   -1.350577
  H     -1.942099    0.927971   -0.039667
  H     -2.121988   -1.008737   -0.157512

 Multiplicity           Mult            ....    1
 Number of Electrons    NEL             ....   16
 Basis Dimension        Dim             ....   56

ORBITAL ENERGIES
----------------

  NO   OCC          E(Eh)            E(eV)
   0   2.0000      -6.530873      -177.7141
   1   2.0000      -6.530675      -177.7087
   2   2.0000      -0.615635       -16.7523
   3   2.0000      -0.412923       -11.2362
   4   2.0000      -0.394032       -10.7221
   5   2.0000      -0.347450        -9.4546
   6   2.0000      -0.335549        -9.1308
   7   2.0000      -0.290428        -7.9029
   8   0.0000      -0.063336        -1.7235
   9   0.0000       0.020968         0.5706
  10   0.0000       0.058744         1.5985
  11   0.0000       0.065125         1.7721
  12   0.0000       0.068238         1.8568

MULLIKEN ATOMIC CHARGES
-----------------------
   0 B :   -0.332643
   1 H :    0.080318
   2 H :    0.081186
   3 B :   -0.332643
   4 H :    0.081186
   5 H :    0.080318
   6 H :    0.171139
   7 H :    0.171139
Sum of atomic charges:   -0.0000000

LOEWDIN ATOMIC CHARGES
----------------------
   0 B :   -0.297664
   1 H :    0.058062
   2 H :    0.058130
   3 B :   -0.297664
   4 H :    0.058130
   5 H :    0.058062
   6 H :    0.181473
   7 H :    0.181473

  Mayer bond orders larger than 0.100000
B(  0-B ,  1-H ) :   0.9736 B(  0-B ,  2-H ) :   0.9731 B(  0-B ,  3-B ) :   0.6906
B(  0-B ,  6-H ) :   0.4445 B(  0-B ,  7-H ) :   0.4442 B(  3-B ,  4-H ) :   0.9731
B(  3-B ,  5-H ) :   0.9736 B(  3-B ,  6-H ) :   0.4442 B(  3-B ,  7-H ) :   0.4445

Dispersion correction           -0.008416778
FINAL SINGLE POINT ENERGY       -53.248879693689

DIPOLE MOMENT
-------------
                                X             Y             Z
Electronic contribution:     -0.00000      -0.00000      -0.00000
Nuclear contribution   :      0.00000      -0.00000       0.00000
                        -----------------------------------------
Total Dipole Moment    :      0.00000      -0.00000       0.00000
                        -----------------------------------------
Magnitude (a.u.)       :      0.00000
Magnitude (Debye)      :      0.00000

Dispersion correction in the Hessian             ... done   (      0.4 sec)

VIBRATIONAL FREQUENCIES
-----------------------

Scaling factor for frequencies =  1.000000000  (already applied!)

   0:         0.00 cm**-1
   1:         0.00 cm**-1
   2:         0.00 cm**-1
   3:         0.00 cm**-1
   4:         0.00 cm**-1
   5:         0.00 cm**-1
   6:       323.07 cm**-1
   7:       792.08 cm**-1
   8:       844.12 cm**-1
   9:       906.31 cm**-1
  10:       918.63 cm**-1
  11:       929.66 cm**-1
  12:       978.30 cm**-1
  13:      1004.63 cm**-1
  14:      1176.90 cm**-1
  15:      1179.77 cm**-1
  16:      1708.13 cm**-1
  17:      1877.93 cm**-1
  18:      2012.67 cm**-1
  19:      2152.41 cm**-1
  20:      2563.73 cm**-1
  21:      2577.13 cm**-1
  22:      2652.31 cm**-1
  23:      2668.57 cm**-1

IR SPECTRUM
-----------

 Mode    freq (cm**-1)   T**2         TX         TY         TZ
-------------------------------------------------------------------
   6:       323.07   14.401081  (  0.565122  -0.275090   3.742465)
   7:       792.08    0.000000  ( -0.000000   0.000000  -0.000002)
   8:       844.12    0.000201  (  0.004915  -0.013246   0.001226)
   9:       906.31    0.000000  ( -0.000000  -0.000000   0.000000)
  10:       918.63    0.421929  ( -0.088151   0.050488  -0.641568)
  11:       929.66    0.000000  (  0.000005  -0.000000  -0.000001)
  12:       978.30   12.724844  ( -0.325633  -3.545917  -0.212787)
  13:      1004.63    0.000000  ( -0.000007  -0.000077  -0.000005)
  14:      1176.90   67.456895  (  8.084877  -0.673939  -1.279634)
  15:      1179.77    0.000000  ( -0.000019   0.000002  -0.000004)
  16:      1708.13  410.728535  (-19.944429   1.665127   3.189928)
  17:      1877.93    0.000000  (  0.000001   0.000000  -0.000000)
  18:      2012.67    4.896472  (  0.208053   2.198799   0.135899)
  19:      2152.41    0.000000  ( -0.000001   0.000001  -0.000009)
  20:      2563.73  155.375922  (-12.274934   1.029574   1.908376)
  21:      2577.13    0.000000  (  0.000009  -0.000000  -0.000014)
  22:      2652.31    0.000000  (  0.000004   0.000000  -0.000011)
  23:      2668.57  191.458449  ( -2.037242   1.030681 -13.647190)

--------------------------
THERMOCHEMISTRY AT 298.15K
--------------------------

Temperature         ... 298.15 K
Pressure            ... 1.00 atm
Total Mass          ... 27.67 AMU

Throughout the following assumptions are being made:
  (1) The electronic state is orbitally nondegenerate
  (2) There are no thermally accessible electronically excited states
  (3) Hindered rotations indicated by low frequency modes are not
      treated as such but are treated as vibrations and this may
      cause some error
  (4) All equations used are the standard statistical mechanics
      equations for an ideal gas
  (5) All vibrations are strictly harmonic

freq.     323.07  E(vib)   ...       0.25
freq.     792.08  E(vib)   ...       0.05
freq.     844.12  E(vib)   ...       0.04
freq.     906.31  E(vib)   ...       0.03
freq.     918.63  E(vib)   ...       0.03
freq.     929.66  E(vib)   ...       0.03
freq.     978.30  E(vib)   ...       0.03
freq.    1004.63  E(vib)   ...       0.02
freq.    1176.90  E(vib)   ...       0.01
freq.    1179.77  E(vib)   ...       0.01
freq.    1708.13  E(vib)   ...       0.00
freq.    1877.93  E(vib)   ...       0.00
freq.    2012.67  E(vib)   ...       0.00
freq.    2152.41  E(vib)   ...       0.00
freq.    2563.73  E(vib)   ...       0.00
freq.    2577.13  E(vib)   ...       0.00
freq.    2652.31  E(vib)   ...       0.00
freq.    2668.57  E(vib)   ...       0.00

------------
INNER ENERGY
------------

The inner energy is: U= E(el) + E(ZPE) + E(vib) + E(rot) + E(trans)
    E(el)   - is the total energy from the electronic structure calculation
              = E(kin-el) + E(nuc-el) + E(el-el) + E(nuc-nuc)
    E(ZPE)  - the the zero temperature vibrational energy from the frequency calculation
    E(vib)  - the the finite temperature correction to E(ZPE) due to population
              of excited vibrational states
    E(rot)  - is the rotational thermal energy
    E(trans)- is the translational thermal energy

Summary of contributions to the inner energy U:
Electronic energy                ...    -53.24887969 Eh
Zero point energy                ...      0.06211733 Eh      38.98 kcal/mol
Thermal vibrational correction   ...      0.00080762 Eh       0.51 kcal/mol
Thermal rotational correction    ...      0.00141627 Eh       0.89 kcal/mol
Thermal translational correction ...      0.00141627 Eh       0.89 kcal/mol
-----------------------------------------------------------------------
Total thermal energy                    -53.18312220 Eh

Summary of corrections to the electronic energy:
(perhaps to be used in another calculation)
Total thermal correction                  0.00364016 Eh       2.28 kcal/mol
Non-thermal (ZPE) correction              0.06211733 Eh      38.98 kcal/mol
-----------------------------------------------------------------------
Total correction                          0.06575749 Eh      41.26 kcal/mol

--------
ENTHALPY
--------

The enthalpy is H = U + kB*T
                kB is Boltzmann's constant
Total free energy                 ...    -53.18312220 Eh
Thermal Enthalpy correction       ...      0.00094421 Eh       0.59 kcal/mol
-----------------------------------------------------------------------
Total Enthalpy                    ...    -53.18217799 Eh

Note: Only C1 symmetry has been detected, increase convergence thresholds
      if your molecule has a higher symmetry. Symmetry factor of 1.0 is
      used for the rotational entropy correction.

Note: Rotational entropy computed according to Herzberg
Infrared and Raman Spectra, Chapter V,1, Van Nostrand Reinhold, 1945
Point Group:  C1, Symmetry Number:   1
Rotational constants in cm-1:     2.691264     0.625193     0.573384

Vibrational entropy computed according to the QRRHO of S. Grimme
Chem.Eur.J. 2012 18 9955

-------
ENTROPY
-------

The entropy contributions are T*S = T*(S(el)+S(vib)+S(rot)+S(trans))
     S(el)   - electronic entropy
     S(vib)  - vibrational entropy
     S(rot)  - rotational entropy
     S(trans)- translational entropy
The entropies will be listed as mutliplied by the temperature to get
units of energy

Electronic entropy                ...      0.00000000 Eh      0.00 kcal/mol
Vibrational entropy               ...      0.00112639 Eh      0.71 kcal/mol
Rotational entropy                ...      0.00952775 Eh      5.98 kcal/mol
Translational entropy             ...      0.01705148 Eh     10.70 kcal/mol
-----------------------------------------------------------------------
Final entropy term                ...      0.02770562 Eh     17.39 kcal/mol

In case the symmetry of your molecule has not been determined correctly
or in case you have a reason to use a different symmetry number we print
out the resulting rotational entropy values for sn=1,12 :
 --------------------------------------------------------
|  sn= 1 | S(rot)=       0.00952775 Eh      5.98 kcal/mol|
|  sn= 2 | S(rot)=       0.00887329 Eh      5.57 kcal/mol|
|  sn= 3 | S(rot)=       0.00849046 Eh      5.33 kcal/mol|
|  sn= 4 | S(rot)=       0.00821884 Eh      5.16 kcal/mol|
|  sn= 5 | S(rot)=       0.00800815 Eh      5.03 kcal/mol|
|  sn= 6 | S(rot)=       0.00783600 Eh      4.92 kcal/mol|
|  sn= 7 | S(rot)=       0.00769046 Eh      4.83 kcal/mol|
|  sn= 8 | S(rot)=       0.00756438 Eh      4.75 kcal/mol|
|  sn= 9 | S(rot)=       0.00745317 Eh      4.68 kcal/mol|
|  sn=10 | S(rot)=       0.00735369 Eh      4.61 kcal/mol|
|  sn=11 | S(rot)=       0.00726370 Eh      4.56 kcal/mol|
|  sn=12 | S(rot)=       0.00718155 Eh      4.51 kcal/mol|
 --------------------------------------------------------

-------------------
GIBBS FREE ENERGY
-------------------

The Gibbs free energy is G = H - T*S

Total enthalpy                    ...    -53.18217799 Eh
Total entropy correction          ...     -0.02770562 Eh    -17.39 kcal/mol
-----------------------------------------------------------------------
Final Gibbs free energy         ...    -53.20988362 Eh

For completeness - the Gibbs free energy minus the electronic energy
G-E(el)                           ...      0.03899608 Eh     24.47 kcal/mol

                             ****ORCA TERMINATED NORMALLY****
TOTAL RUN TIME: 0 days 0 hours 0 minutes 42 seconds 1 msec
