                         Program Version 4.2.1 -  RELEASE  -
|  1> ! revPBE D4 gCP(DFT/SVP) def2-SVP Opt Freq TightOpt TightSCF Grid4 FinalGrid5 LargePrint
|  2>
|  3> %pal
|  4>  nprocs 2
|  5> end
|  6>
|  7> *xyz 0 1
|  8>   H     -1.459118    0.924374    0.929329
|  9>   H     -1.286859    0.350342    0.451634
| 10> *
| 11>
| 12>                          ****END OF INPUT****
 Total Charge           Charge          ....    0
 Multiplicity           Mult            ....    1
 Number of Electrons    NEL             ....    2
Dispersion correction           -0.000397439
FINAL SINGLE POINT ENERGY        -1.170434726167
Dispersion correction            ...
Dispersion correction           -0.000397499
FINAL SINGLE POINT ENERGY        -1.170434804761
Dispersion correction            ...
Dispersion correction           -0.000397477
FINAL SINGLE POINT ENERGY        -1.170434791653
Dispersion correction            ...
                    ***********************HURRAY********************

CARTESIAN COORDINATES (ANGSTROEM)
---------------------------------
  H     -1.459141    0.924452    0.929394
  H     -1.286836    0.350264    0.451569

 Multiplicity           Mult            ....    1
 Number of Electrons    NEL             ....    2
 Basis Dimension        Dim             ....   10

ORBITAL ENERGIES
----------------

  NO   OCC          E(Eh)            E(eV)
   0   2.0000      -0.373425       -10.1614
   1   0.0000       0.049620         1.3502
   2   0.0000       0.313087         8.5195
   3   0.0000       0.662234        18.0203
   4   0.0000       1.105451        30.0809
   5   0.0000       1.105452        30.0809

------------------
MOLECULAR ORBITALS
------------------
                      0         1         2         3         4         5
                  -0.37342   0.04962   0.31309   0.66223   1.10545   1.10545
                   2.00000   0.00000   0.00000   0.00000   0.00000   0.00000
                  --------  --------  --------  --------  --------  --------
  0H   1s         0.409048  0.245348 -0.701381 -0.925186  0.000010  0.000004
  0H   2s         0.173234  1.704689  0.726192  1.755861 -0.000007 -0.000003
  0H   1pz       -0.010513  0.013838  0.014513 -0.166417 -0.457828 -0.062625
  0H   1px        0.003790 -0.004991 -0.005234  0.060009 -0.028179 -0.575103
  0H   1py       -0.012631  0.016630  0.017441 -0.199976  0.372528 -0.120468
  1H   1s         0.409048 -0.245348 -0.701381  0.925186 -0.000010 -0.000004
  1H   2s         0.173234 -1.704689  0.726192 -1.755861  0.000007  0.000003
  1H   1pz        0.010513  0.013838 -0.014513 -0.166417 -0.457828 -0.062625
  1H   1px       -0.003790 -0.004991  0.005234  0.060009 -0.028179 -0.575103
  1H   1py        0.012631  0.016630 -0.017441 -0.199976  0.372528 -0.120468
                      6         7         8         9
                   1.72049   1.86275   1.86276   3.24695
                   0.00000   0.00000   0.00000   0.00000
                  --------  --------  --------  --------
  0H   1s         0.417320 -0.000011 -0.000006 -2.244947
  0H   2s        -0.217712  0.000006  0.000003 -0.006520
  0H   1pz        0.428714  0.718873  0.146428  1.183775
  0H   1px       -0.154577 -0.014660  0.914059 -0.426876
  0H   1py        0.515136 -0.602650  0.152431  1.422511
  1H   1s         0.417320 -0.000011 -0.000006  2.244947
  1H   2s        -0.217712  0.000006  0.000003  0.006520
  1H   1pz       -0.428714 -0.718873 -0.146428  1.183775
  1H   1px        0.154577  0.014660 -0.914059 -0.426876
  1H   1py       -0.515136  0.602650 -0.152431  1.422511

MULLIKEN ATOMIC CHARGES
-----------------------
   0 H :    0.000000
   1 H :   -0.000000
Sum of atomic charges:    0.0000000

LOEWDIN ATOMIC CHARGES
----------------------
   0 H :    0.000000
   1 H :   -0.000000

  Mayer bond orders larger than 0.100000
B(  0-H ,  1-H ) :   1.0000

Dispersion correction           -0.000397477
FINAL SINGLE POINT ENERGY        -1.170434791692

DIPOLE MOMENT
-------------
                                X             Y             Z
Electronic contribution:     -0.00000      -0.00000       0.00000
Nuclear contribution   :      0.00000      -0.00000      -0.00000
                        -----------------------------------------
Total Dipole Moment    :     -0.00000      -0.00000       0.00000
                        -----------------------------------------
Magnitude (a.u.)       :      0.00000
Magnitude (Debye)      :      0.00000

Dispersion correction in the Hessian             ...
Dispersion correction Hessian from Numerical Differentiation:

VIBRATIONAL FREQUENCIES
-----------------------

Scaling factor for frequencies =  1.000000000  (already applied!)

   0:         0.00 cm**-1
   1:         0.00 cm**-1
   2:         0.00 cm**-1
   3:         0.00 cm**-1
   4:         0.00 cm**-1
   5:      4294.66 cm**-1

IR SPECTRUM
-----------

 Mode    freq (cm**-1)   T**2         TX         TY         TZ
-------------------------------------------------------------------
   5:      4294.66    0.000000  (  0.000000  -0.000000  -0.000000)

--------------------------
THERMOCHEMISTRY AT 298.15K
--------------------------

Temperature         ... 298.15 K
Pressure            ... 1.00 atm
Total Mass          ... 2.02 AMU
The molecule is recognized as being linear

Throughout the following assumptions are being made:
  (1) The electronic state is orbitally nondegenerate
  (2) There are no thermally accessible electronically excited states
  (3) Hindered rotations indicated by low frequency modes are not
      treated as such but are treated as vibrations and this may
      cause some error
  (4) All equations used are the standard statistical mechanics
      equations for an ideal gas
  (5) All vibrations are strictly harmonic

freq.    4294.66  E(vib)   ...       0.00

------------
INNER ENERGY
------------

The inner energy is: U= E(el) + E(ZPE) + E(vib) + E(rot) + E(trans)
    E(el)   - is the total energy from the electronic structure calculation
              = E(kin-el) + E(nuc-el) + E(el-el) + E(nuc-nuc)
    E(ZPE)  - the the zero temperature vibrational energy from the frequency calculation
    E(vib)  - the the finite temperature correction to E(ZPE) due to population
              of excited vibrational states
    E(rot)  - is the rotational thermal energy
    E(trans)- is the translational thermal energy

Summary of contributions to the inner energy U:
Electronic energy                ...     -1.17043479 Eh
Zero point energy                ...      0.00978396 Eh       6.14 kcal/mol
Thermal vibrational correction   ...      0.00000000 Eh       0.00 kcal/mol
Thermal rotational correction    ...      0.00094418 Eh       0.59 kcal/mol
Thermal translational correction ...      0.00141627 Eh       0.89 kcal/mol
-----------------------------------------------------------------------
Total thermal energy                     -1.15829038 Eh

Summary of corrections to the electronic energy:
(perhaps to be used in another calculation)
Total thermal correction                  0.00236045 Eh       1.48 kcal/mol
Non-thermal (ZPE) correction              0.00978396 Eh       6.14 kcal/mol
-----------------------------------------------------------------------
Total correction                          0.01214441 Eh       7.62 kcal/mol

--------
ENTHALPY
--------

The enthalpy is H = U + kB*T
                kB is Boltzmann's constant
Total free energy                 ...     -1.15829038 Eh
Thermal Enthalpy correction       ...      0.00094421 Eh       0.59 kcal/mol
-----------------------------------------------------------------------
Total Enthalpy                    ...     -1.15734617 Eh

Note: Rotational entropy computed according to Herzberg
Infrared and Raman Spectra, Chapter V,1, Van Nostrand Reinhold, 1945
Point Group:  Dinfh, Symmetry Number:   2
Rotational constants in cm-1:     0.000000    56.913211    56.913211

Vibrational entropy computed according to the QRRHO of S. Grimme
Chem.Eur.J. 2012 18 9955

-------
ENTROPY
-------

The entropy contributions are T*S = T*(S(el)+S(vib)+S(rot)+S(trans))
     S(el)   - electronic entropy
     S(vib)  - vibrational entropy
     S(rot)  - rotational entropy
     S(trans)- translational entropy
The entropies will be listed as mutliplied by the temperature to get
units of energy

Electronic entropy                ...      0.00000000 Eh      0.00 kcal/mol
Vibrational entropy               ...     -0.00000000 Eh     -0.00 kcal/mol
Rotational entropy                ...      0.00150987 Eh      0.95 kcal/mol
Translational entropy             ...      0.01334204 Eh      8.37 kcal/mol
-----------------------------------------------------------------------
Final entropy term                ...      0.01485191 Eh      9.32 kcal/mol

In case the symmetry of your molecule has not been determined correctly
or in case you have a reason to use a different symmetry number we print
out the resulting rotational entropy values for sn=1,12 :
 --------------------------------------------------------
|  sn= 1 | S(rot)=             -nan Eh      -nan kcal/mol|
|  sn= 2 | S(rot)=             -nan Eh      -nan kcal/mol|
|  sn= 3 | S(rot)=             -nan Eh      -nan kcal/mol|
|  sn= 4 | S(rot)=             -nan Eh      -nan kcal/mol|
|  sn= 5 | S(rot)=             -nan Eh      -nan kcal/mol|
|  sn= 6 | S(rot)=             -nan Eh      -nan kcal/mol|
|  sn= 7 | S(rot)=             -nan Eh      -nan kcal/mol|
|  sn= 8 | S(rot)=             -nan Eh      -nan kcal/mol|
|  sn= 9 | S(rot)=             -nan Eh      -nan kcal/mol|
|  sn=10 | S(rot)=             -nan Eh      -nan kcal/mol|
|  sn=11 | S(rot)=             -nan Eh      -nan kcal/mol|
|  sn=12 | S(rot)=             -nan Eh      -nan kcal/mol|
 --------------------------------------------------------

-------------------
GIBBS FREE ENERGY
-------------------

The Gibbs free energy is G = H - T*S

Total enthalpy                    ...     -1.15734617 Eh
Total entropy correction          ...     -0.01485191 Eh     -9.32 kcal/mol
-----------------------------------------------------------------------
Final Gibbs free energy         ...     -1.17219809 Eh

For completeness - the Gibbs free energy minus the electronic energy
G-E(el)                           ...     -0.00176329 Eh     -1.11 kcal/mol

                             ****ORCA TERMINATED NORMALLY****
TOTAL RUN TIME: 0 days 0 hours 0 minutes 11 seconds 227 msec
