                         Program Version 4.2.1 -  RELEASE  -
|  1> ! revPBE D4 gCP(DFT/SVP) def2-SVP Opt Freq TightOpt TightSCF Grid4 FinalGrid5 LargePrint
|  2>
|  3> %pal
|  4>  nprocs 4
|  5> end
|  6>
|  7> *xyz 0 1
|  8> O       -1.1605931217      2.9577253471      0.0447499041
|  9> O        0.1384095003      2.7439938009      0.0085983285
| 10> H       -1.5133140356      2.5127894696     -0.7679511515
| 11> H        0.5251566000      3.5908396288     -0.3321975176
| 12> *
| 13>
| 14>                          ****END OF INPUT****
 Total Charge           Charge          ....    0
 Multiplicity           Mult            ....    1
 Number of Electrons    NEL             ....   18
Dispersion correction           -0.003041608
FINAL SINGLE POINT ENERGY      -151.352104147749
Dispersion correction            ...
Dispersion correction           -0.003014852
FINAL SINGLE POINT ENERGY      -151.362086661005
Dispersion correction            ...
Dispersion correction           -0.003008381
FINAL SINGLE POINT ENERGY      -151.364293868190
Dispersion correction            ...
FINAL SINGLE POINT ENERGY      -151.365025025595
FINAL SINGLE POINT ENERGY      -151.365128352721
FINAL SINGLE POINT ENERGY      -151.365183318084
FINAL SINGLE POINT ENERGY      -151.365203335228
FINAL SINGLE POINT ENERGY      -151.365205407496
Dispersion correction            ...
Dispersion correction           -0.002996406
FINAL SINGLE POINT ENERGY      -151.365205432040
Dispersion correction            ...
                    ***********************HURRAY********************

CARTESIAN COORDINATES (ANGSTROEM)
---------------------------------
  O     -1.229806    3.021432    0.004387
  O      0.210801    2.717865   -0.058890
  H     -1.552977    2.449916   -0.730508
  H      0.561640    3.616136   -0.261789

 Multiplicity           Mult            ....    1
 Number of Electrons    NEL             ....   18
 Basis Dimension        Dim             ....   38

ORBITAL ENERGIES
----------------

  NO   OCC          E(Eh)            E(eV)
   0   2.0000     -18.810990      -511.8731
   1   2.0000     -18.810851      -511.8693
   2   2.0000      -0.994483       -27.0613
   3   2.0000      -0.792014       -21.5518
   4   2.0000      -0.466025       -12.6812
   5   2.0000      -0.416634       -11.3372
   6   2.0000      -0.347870        -9.4660
   7   2.0000      -0.255520        -6.9530
   8   2.0000      -0.207581        -5.6486
   9   0.0000      -0.026066        -0.7093
  10   0.0000       0.027716         0.7542
  11   0.0000       0.069475         1.8905
  12   0.0000       0.523735        14.2516
  13   0.0000       0.528153        14.3718

------------------
MOLECULAR ORBITALS
------------------
                      0         1         2         3         4         5
                 -18.81099 -18.81085  -0.99448  -0.79201  -0.46603  -0.41663
                   2.00000   2.00000   2.00000   2.00000   2.00000   2.00000
                  --------  --------  --------  --------  --------  --------
  0O   1s        -0.716049 -0.682086  0.198156  0.200275 -0.001949  0.089795
  0O   2s         0.029025  0.026931  0.395990  0.415604 -0.001810  0.182230
  0O   3s        -0.016534 -0.010551  0.213131  0.231246 -0.047489  0.246193
  0O   1pz       -0.001337 -0.001289 -0.052733 -0.083440 -0.204854  0.192506
  0O   1px        0.000498  0.000476  0.091011 -0.078393 -0.360978  0.034863
  0O   1py       -0.001185 -0.001022 -0.052271 -0.064796 -0.030694  0.307648
  0O   2pz        0.000607  0.000758 -0.010362 -0.011776 -0.088554  0.088753
  0O   2px       -0.004582 -0.000405  0.040850 -0.038175 -0.182112  0.010025
  0O   2py        0.001295  0.000411 -0.006369 -0.008189  0.007657  0.182466
  0O   1dz2       0.000250  0.000416 -0.007137  0.003282  0.012971 -0.002383
  0O   1dxz       0.000316  0.000371 -0.002142  0.003176  0.004003  0.002342
  0O   1dyz       0.000496  0.000418  0.004845  0.005406  0.004848 -0.009506
  0O   1dx2y2    -0.000190 -0.000417  0.013079 -0.003855 -0.012598  0.009040
  0O   1dxy       0.000233  0.000462 -0.004513  0.000622  0.013927  0.011443
  1O   1s         0.681991 -0.716139  0.198154 -0.200278 -0.001947 -0.089792
  1O   2s        -0.027679  0.028312  0.395984 -0.415610 -0.001805 -0.182225
  1O   3s         0.016001 -0.011343  0.213129 -0.231249 -0.047488 -0.246181
  1O   1pz        0.000316 -0.000414 -0.013570  0.020904 -0.122181  0.042303
  1O   1px        0.000428 -0.000447 -0.089056 -0.081469  0.370625  0.039308
  1O   1py       -0.001688  0.001694  0.075371 -0.101153  0.144636  0.359975
  1O   2pz        0.000106  0.000354 -0.006297  0.002119 -0.064439  0.044412
  1O   2px       -0.004543  0.000594 -0.040359 -0.038584  0.186624  0.011343
  1O   2py        0.001435 -0.000871  0.012174 -0.013032  0.045643  0.197908
  1O   1dz2       0.000257 -0.000052 -0.011494  0.002090  0.006017 -0.004483
  1O   1dxz       0.000107 -0.000045  0.000445  0.002312  0.004006 -0.005562
  1O   1dyz       0.000198 -0.000221 -0.001710  0.001942 -0.005267 -0.000209
  1O   1dx2y2     0.000426 -0.000677  0.010415  0.006627 -0.016606 -0.012808
  1O   1dxy      -0.000376  0.000648 -0.005169 -0.002815  0.014307 -0.009953
  2H   1s        -0.000624 -0.001128  0.116985  0.196494  0.243621 -0.206516
  2H   2s         0.001266  0.003024 -0.001500  0.009645  0.068090 -0.071117
  2H   1pz       -0.001704 -0.001409  0.014911  0.021434  0.016290 -0.011814
  2H   1px       -0.000645 -0.000042  0.008157  0.008841 -0.001443 -0.014039
  2H   1py       -0.001340 -0.001146  0.011029  0.016995  0.018160 -0.002980
  3H   1s         0.000568 -0.001157  0.116981 -0.196494  0.243619  0.206516
  3H   2s        -0.001117  0.003082 -0.001502 -0.009645  0.068095  0.071112
  3H   1pz        0.000447 -0.000410  0.004384 -0.005746  0.001541  0.006651
  3H   1px       -0.000703  0.000129 -0.008726  0.009643  0.000917 -0.014583
  3H   1py       -0.002008  0.001873 -0.017752  0.026466 -0.024373 -0.009414
                      6         7         8         9        10        11
                  -0.34787  -0.25552  -0.20758  -0.02607   0.02772   0.06948
                   2.00000   2.00000   2.00000   0.00000   0.00000   0.00000
                  --------  --------  --------  --------  --------  --------
  0O   1s         0.061947  0.038468  0.025527 -0.093777 -0.066716 -0.014499
  0O   2s         0.126163  0.074534  0.054592 -0.215247 -0.126576 -0.004484
  0O   3s         0.171333  0.141720  0.077535 -0.433163 -0.551398 -0.302397
  0O   1pz        0.337917 -0.075846  0.390153  0.071850  0.164103  0.171083
  0O   1px       -0.257568 -0.036427 -0.054398 -0.470357  0.096102  0.271794
  0O   1py        0.024216  0.449609 -0.276150  0.138684  0.113200  0.102566
  0O   2pz        0.224555 -0.083503  0.272447  0.088460  0.217475  0.226470
  0O   2px       -0.167046 -0.027300 -0.052651 -0.442786  0.112348  0.341933
  0O   2py       -0.004002  0.304048 -0.220952  0.166841  0.149359  0.150764
  0O   1dz2      -0.004316  0.007049 -0.010573 -0.008815 -0.000481  0.003586
  0O   1dxz       0.015616 -0.007765 -0.005165  0.006967  0.001879 -0.000417
  0O   1dyz      -0.006713 -0.006703  0.000455 -0.004988 -0.003912 -0.000124
  0O   1dx2y2    -0.007122  0.003888 -0.005420  0.016308 -0.004499 -0.002053
  0O   1dxy       0.001420 -0.000127 -0.002241  0.001550  0.000453  0.005075
  1O   1s         0.061950  0.038471 -0.025526  0.093779 -0.066713  0.014483
  1O   2s         0.126169  0.074542 -0.054590  0.215247 -0.126556  0.004445
  1O   3s         0.171339  0.141730 -0.077524  0.433196 -0.551457  0.302320
  1O   1pz        0.262780 -0.336560 -0.479488  0.005193  0.053008 -0.055820
  1O   1px        0.239847  0.048592 -0.028745 -0.468383 -0.102575  0.278472
  1O   1py       -0.233530 -0.305914  0.026837  0.161922 -0.188856  0.181603
  1O   2pz        0.186886 -0.252648 -0.353060  0.011133  0.071458 -0.065522
  1O   2px        0.154912  0.037220 -0.034198 -0.440500 -0.120951  0.350522
  1O   2py       -0.139361 -0.186916 -0.003015  0.193794 -0.250076  0.252451
  1O   1dz2       0.005174  0.007837  0.002759  0.005299  0.004474 -0.002597
  1O   1dxz      -0.011734  0.005395 -0.003061  0.003027 -0.001618 -0.003074
  1O   1dyz       0.009404 -0.006670 -0.011124 -0.000971  0.003590  0.001855
  1O   1dx2y2    -0.000039  0.003566  0.001401 -0.018924 -0.001439  0.002827
  1O   1dxy       0.010362 -0.004722  0.005514 -0.004814  0.001391 -0.003921
  2H   1s        -0.096622 -0.158450 -0.100493  0.046362  0.145385  0.180568
  2H   2s        -0.012368 -0.025528 -0.032953  0.329519  0.877958  0.945956
  2H   1pz        0.006158 -0.018228  0.010650  0.003701 -0.008201 -0.008295
  2H   1px       -0.014865 -0.000773 -0.001025 -0.025429  0.000065 -0.000200
  2H   1py       -0.005720  0.009380 -0.021830  0.006446 -0.006734 -0.006765
  3H   1s        -0.096626 -0.158459  0.100484 -0.046362  0.145424 -0.180518
  3H   2s        -0.012378 -0.025541  0.032947 -0.329571  0.878108 -0.945830
  3H   1pz        0.009148 -0.020039 -0.021940 -0.000228 -0.002235  0.002276
  3H   1px        0.014414  0.001903 -0.000063 -0.025313  0.000238 -0.000512
  3H   1py        0.000387  0.003955 -0.010474  0.007816  0.010365 -0.010445
                     12        13        14        15        16        17
                   0.52374   0.52815   0.81447   0.82741   0.87964   0.92106
                   0.00000   0.00000   0.00000   0.00000   0.00000   0.00000
                  --------  --------  --------  --------  --------  --------
  0O   1s         0.029078  0.066380  0.098990 -0.073513  0.095502  0.069962
  0O   2s         0.118477  0.266271  0.433506 -0.351650  0.460387  0.323215
  0O   3s        -0.223466 -0.325893 -0.065628  0.269346 -0.180406 -0.138627
  0O   1pz       -0.218691 -0.230137  0.079928 -0.568269  0.092409  0.329114
  0O   1px       -0.043787  0.048728 -0.291075  0.137237  0.342855 -0.365461
  0O   1py       -0.260481 -0.103710  0.520111  0.267580  0.315097 -0.365614
  0O   2pz       -0.034341 -0.047240 -0.133137  0.571508 -0.374121 -0.441251
  0O   2px       -0.090374 -0.129941  0.511366 -0.101449 -0.424138  0.809529
  0O   2py       -0.030605 -0.002678 -0.575831 -0.188933 -0.702786  0.369298
  0O   1dz2      -0.023765 -0.016787 -0.004060  0.003317 -0.030802 -0.005785
  0O   1dxz      -0.034674 -0.029818 -0.006387  0.008394  0.011396  0.022509
  0O   1dyz      -0.050843 -0.053122 -0.000545  0.001083 -0.010407 -0.014990
  0O   1dx2y2     0.021779 -0.003042  0.003812 -0.005326  0.067035  0.011976
  0O   1dxy      -0.018027 -0.030301 -0.012278  0.001570 -0.003745  0.002218
  1O   1s         0.029178 -0.066340 -0.098954 -0.073557  0.095510 -0.069950
  1O   2s         0.118883 -0.266111 -0.433339 -0.351838  0.460437 -0.323149
  1O   3s        -0.223980  0.325566  0.065532  0.269346 -0.180476  0.138544
  1O   1pz       -0.007174  0.118138  0.245449 -0.617644 -0.141415 -0.503675
  1O   1px        0.050395  0.038530 -0.295913 -0.102415 -0.341334 -0.340909
  1O   1py        0.339468 -0.224546  0.462460  0.145894 -0.297993 -0.075471
  1O   2pz       -0.003137  0.028451 -0.226831  0.569440  0.166129  0.617010
  1O   2px        0.091670 -0.132043  0.514113  0.068099  0.430113  0.778317
  1O   2py        0.043668 -0.029015 -0.543143 -0.208893  0.775181  0.000605
  1O   1dz2       0.027132 -0.039051  0.002738  0.001733 -0.027353 -0.004746
  1O   1dxz       0.016521 -0.002927  0.002127 -0.006085 -0.005197  0.015671
  1O   1dyz       0.018800 -0.025347 -0.001021  0.000002 -0.003981 -0.003556
  1O   1dx2y2     0.048100 -0.027159 -0.004318 -0.005390  0.070003 -0.020295
  1O   1dxy      -0.038588  0.044640  0.013824  0.006673  0.001808 -0.014847
  2H   1s        -0.867666 -0.895769 -0.137227  0.128310 -0.399545 -0.069162
  2H   2s         0.729877  0.873774  0.028805 -0.026021  0.102171  0.422043
  2H   1pz        0.105718  0.097327 -0.035781  0.059359 -0.063427  0.020967
  2H   1px        0.048235  0.054597  0.047582 -0.026420 -0.236019 -0.091078
  2H   1py        0.084444  0.069939 -0.054284  0.010396 -0.002938  0.100193
  3H   1s        -0.868985  0.894490  0.137145  0.128335 -0.399466  0.069154
  3H   2s         0.731178 -0.872685 -0.028815 -0.026036  0.102230 -0.422001
  3H   1pz        0.027757 -0.029777 -0.003242  0.041352 -0.035368  0.041031
  3H   1px       -0.052260  0.058264  0.046618  0.023479  0.238927 -0.091654
  3H   1py       -0.131115  0.114046 -0.065599 -0.045515  0.037335  0.093196
                     18        19        20        21        22        23
                   0.94564   0.97996   1.14215   1.22549   1.28803   1.33193
                   0.00000   0.00000   0.00000   0.00000   0.00000   0.00000
                  --------  --------  --------  --------  --------  --------
  0O   1s        -0.134027 -0.010477 -0.132264  0.155168  0.023708 -0.021240
  0O   2s        -0.745346 -0.120601 -0.839381  1.202155  0.276413 -0.121657
  0O   3s         1.187358  0.362697  1.240246 -2.843839 -0.956525  0.075109
  0O   1pz        0.106359  0.462030  0.167240 -0.000713  0.034894 -0.010687
  0O   1px        0.429959  0.302798 -0.263425  0.256943  0.012588 -0.118089
  0O   1py       -0.282793  0.073217  0.312303  0.000269 -0.070867  0.013400
  0O   2pz       -0.253124 -1.013627 -0.633413  0.397836  0.296969  0.093528
  0O   2px       -0.573065 -0.760500 -0.053906 -1.324120 -0.632439  0.133467
  0O   2py        0.194045 -0.212730 -0.825345  0.439781  0.218414 -0.242648
  0O   1dz2      -0.011326 -0.005664  0.027477 -0.008923  0.089353  0.120729
  0O   1dxz      -0.002365  0.012842 -0.041823  0.033920 -0.041695  0.066854
  0O   1dyz       0.007466 -0.018196 -0.042808  0.045095  0.048196 -0.054037
  0O   1dx2y2     0.032574 -0.018163 -0.041808  0.058631  0.010647  0.040867
  0O   1dxy      -0.016531 -0.026451  0.050312  0.044717 -0.106878 -0.027909
  1O   1s        -0.134033  0.010408 -0.132272 -0.155160 -0.023709 -0.021240
  1O   2s        -0.745406  0.120228 -0.839442 -1.202105 -0.276418 -0.121644
  1O   3s         1.187525 -0.362182  1.240377  2.843764  0.956526  0.075057
  1O   1pz        0.236266 -0.299908 -0.049283  0.014220 -0.070634 -0.010472
  1O   1px       -0.440199  0.325137  0.259959  0.256488  0.015706  0.118710
  1O   1py        0.163301  0.338827 -0.353410 -0.004917 -0.034099 -0.006029
  1O   2pz       -0.288547  0.620593  0.019934 -0.107664 -0.129870  0.216815
  1O   2px        0.589368 -0.808531  0.071953 -1.309208 -0.619851 -0.142594
  1O   2py       -0.005066 -0.782293  1.039126  0.615860  0.367150  0.134497
  1O   1dz2      -0.022566 -0.016562  0.067164  0.060977  0.009840  0.075973
  1O   1dxz      -0.005164  0.027974  0.057051 -0.007789  0.037134 -0.077825
  1O   1dyz      -0.008655 -0.017575  0.006540  0.028396  0.096446 -0.106888
  1O   1dx2y2     0.026253  0.002949 -0.024772 -0.030166  0.046792  0.023604
  1O   1dxy      -0.014955  0.013543  0.013931 -0.056611  0.103024  0.024584
  2H   1s        -0.088912 -0.451792 -0.645938  0.588368  0.232590 -0.043319
  2H   2s        -0.495586 -0.507649 -0.369713  0.049184  0.033033  0.003110
  2H   1pz       -0.093901 -0.151885 -0.102380  0.129430 -0.336511 -0.394737
  2H   1px       -0.053980 -0.051887  0.084513 -0.069718  0.526366 -0.075143
  2H   1py       -0.015669 -0.103442 -0.150261  0.091998  0.256197  0.537425
  3H   1s        -0.089104  0.451840 -0.645958 -0.588339 -0.232594 -0.043298
  3H   2s        -0.495788  0.507411 -0.369722 -0.049151 -0.033028  0.003112
  3H   1pz       -0.060889  0.051816  0.008794 -0.047769  0.449906 -0.638500
  3H   1px        0.058565 -0.057906 -0.081765 -0.064489  0.503170  0.105599
  3H   1py        0.069677 -0.174404  0.182888  0.153735 -0.017834 -0.177430
                     24        25        26        27        28        29
                   1.45353   1.60469   2.07274   2.07910   2.32612   2.36142
                   0.00000   0.00000   0.00000   0.00000   0.00000   0.00000
                  --------  --------  --------  --------  --------  --------
  0O   1s         0.025172  0.067541 -0.031663 -0.086584 -0.049319 -0.013677
  0O   2s         0.258618  0.371212 -0.148371 -0.441933 -0.188904 -0.044104
  0O   3s        -0.802956 -0.163052 -0.369606 -0.110791 -0.137894 -0.111797
  0O   1pz        0.055804 -0.076112  0.306649  0.343678  0.106462 -0.006689
  0O   1px       -0.028320  0.219598  0.272448  0.098488 -0.085580 -0.078568
  0O   1py       -0.125205  0.045531  0.249339  0.246722  0.130198 -0.017889
  0O   2pz       -0.139524  0.103139  0.067164  0.023998  0.054181  0.148738
  0O   2px       -0.470167 -0.483513 -0.093136  0.152463  0.056158  0.182073
  0O   2py        0.518874 -0.187314 -0.021218  0.077684  0.002231  0.095484
  0O   1dz2      -0.077437  0.046853  0.111306  0.036537 -0.296031  0.071117
  0O   1dxz      -0.037772 -0.145669  0.024091  0.077679  0.139713 -0.524484
  0O   1dyz       0.079201  0.050976  0.087471  0.118853  0.212592  0.216551
  0O   1dx2y2    -0.077588  0.035634 -0.138445  0.019193  0.442532  0.248102
  0O   1dxy      -0.062223 -0.050906  0.106194  0.035727 -0.254669  0.261597
  1O   1s        -0.025177  0.067543 -0.031744  0.086554 -0.049319 -0.013676
  1O   2s        -0.258649  0.371219 -0.148778  0.441793 -0.188901 -0.044099
  1O   3s         0.802977 -0.163054 -0.369711  0.110447 -0.137912 -0.111798
  1O   1pz       -0.122874 -0.099349  0.070789 -0.110349  0.006917  0.010007
  1O   1px       -0.023039 -0.214428 -0.283684  0.111623  0.082230  0.078473
  1O   1py       -0.062959  0.015601 -0.381190  0.404588 -0.169707  0.016734
  1O   2pz        0.406584  0.222415  0.070561  0.037548  0.038042  0.047469
  1O   2px       -0.486295  0.473915  0.088937  0.152146 -0.058877 -0.187859
  1O   2py        0.328608  0.073900 -0.026847  0.072963 -0.034370 -0.163845
  1O   1dz2       0.074060 -0.027630  0.022997  0.094612 -0.473466 -0.182577
  1O   1dxz       0.004846  0.083171  0.034302  0.034152 -0.207041  0.590996
  1O   1dyz      -0.081323 -0.076734 -0.041760  0.062355 -0.016113 -0.246833
  1O   1dx2y2     0.077584 -0.020791 -0.189942  0.049610  0.360711  0.036083
  1O   1dxy       0.073802 -0.125983  0.107559 -0.081480 -0.125029 -0.110380
  2H   1s         0.142653 -0.048270  0.194500  0.198247  0.134347  0.125414
  2H   2s         0.084767  0.045412  0.247798  0.300542  0.105900  0.044919
  2H   1pz        0.254161 -0.335998  0.546657  0.659892  0.184194  0.055128
  2H   1px        0.387147  0.589037  0.320530  0.287043  0.207434 -0.191763
  2H   1py       -0.522937 -0.100085  0.468938  0.461598  0.153677  0.120643
  3H   1s        -0.142656 -0.048273  0.194685 -0.198070  0.134361  0.125410
  3H   2s        -0.084772  0.045402  0.248070 -0.300309  0.105900  0.044920
  3H   1pz       -0.503120 -0.231632  0.119708 -0.214279  0.037733 -0.021726
  3H   1px        0.409513 -0.572273 -0.340477  0.312525 -0.213970  0.190771
  3H   1py       -0.259092  0.297846 -0.701757  0.765570 -0.231014 -0.132281
                     30        31        32        33        34        35
                   2.50080   2.82275   2.85381   2.95247   3.06188   3.37574
                   0.00000   0.00000   0.00000   0.00000   0.00000   0.00000
                  --------  --------  --------  --------  --------  --------
  0O   1s         0.003237  0.002735 -0.001879  0.005048  0.014092 -0.004031
  0O   2s         0.014198  0.006425  0.003919  0.050131  0.097138 -0.379770
  0O   3s         0.024503  0.043788 -0.078484 -0.138113 -0.066331  1.947171
  0O   1pz       -0.032679 -0.024777  0.002928 -0.074398 -0.037894 -0.121869
  0O   1px        0.001027 -0.003449  0.008148 -0.000629  0.043497 -0.079718
  0O   1py        0.025391  0.001004  0.022037 -0.008466 -0.052583 -0.079967
  0O   2pz        0.138008  0.055014  0.140581  0.196431  0.106052 -0.495146
  0O   2px        0.240955 -0.033438 -0.026207 -0.170274 -0.110737  0.758109
  0O   2py       -0.013412 -0.143823 -0.086011 -0.008293  0.195780 -0.503583
  0O   1dz2       0.008182 -0.597475 -0.610233 -0.151581 -0.050985 -0.143138
  0O   1dxz      -0.011651 -0.063871 -0.083825  0.701156  0.310181  0.179488
  0O   1dyz       0.194541  0.141821  0.132577 -0.211882 -0.227085  0.631479
  0O   1dx2y2    -0.286261 -0.317212 -0.319917 -0.023050  0.323615  0.476050
  0O   1dxy      -0.594934  0.217462  0.195732 -0.084278  0.574438 -0.017194
  1O   1s        -0.003238  0.002732  0.001881 -0.005045  0.014093  0.004034
  1O   2s        -0.014200  0.006416 -0.003913 -0.050118  0.097157  0.379766
  1O   3s        -0.024512  0.043766  0.078500  0.138118 -0.066396 -1.947023
  1O   1pz        0.041378 -0.019823  0.011808  0.052897  0.000724  0.041462
  1O   1px       -0.001152  0.004762  0.007890 -0.004385 -0.042402 -0.084515
  1O   1py       -0.000415  0.014526  0.018939 -0.052810  0.065534 -0.136837
  1O   2pz       -0.103592  0.134167 -0.164656 -0.167738 -0.032795  0.114392
  1O   2px        0.248078  0.027850 -0.017193 -0.159522  0.108609  0.740157
  1O   2py        0.070769  0.077923  0.020426  0.118589 -0.221327 -0.715861
  1O   1dz2       0.098100 -0.246871  0.243066 -0.067874  0.072866  0.762427
  1O   1dxz       0.368926  0.213384 -0.215521  0.598384  0.127803  0.080033
  1O   1dyz      -0.070149  0.628795 -0.640705 -0.217358 -0.031586  0.247291
  1O   1dx2y2     0.326473 -0.131507  0.125955 -0.180088  0.405731 -0.134490
  1O   1dxy       0.465529  0.102391 -0.072013 -0.353210  0.630739 -0.106473
  2H   1s         0.085663 -0.048071  0.049237  0.027009  0.072418 -0.837921
  2H   2s         0.054888 -0.013381  0.015356 -0.018951  0.000248 -0.150442
  2H   1pz        0.086612 -0.290901 -0.208422 -0.105542 -0.073405 -0.384786
  2H   1px       -0.308689  0.035851  0.049438  0.203608  0.302092 -0.221432
  2H   1py        0.119219  0.271495  0.320824 -0.068754 -0.124084 -0.266694
  3H   1s        -0.085664 -0.048043 -0.049271 -0.027024  0.072434  0.837758
  3H   2s        -0.054881 -0.013371 -0.015357  0.018949  0.000252  0.150402
  3H   1pz       -0.009955 -0.398166  0.364606  0.050567  0.003774  0.123682
  3H   1px       -0.305849 -0.015531  0.032539  0.198992 -0.300046 -0.236378
  3H   1py        0.152856 -0.031544  0.121065 -0.123118  0.148353 -0.443756
                     36        37
                   3.49360   3.74136
                   0.00000   0.00000
                  --------  --------
  0O   1s         0.029582 -0.038413
  0O   2s        -0.005063 -0.276320
  0O   3s         0.926015  0.054386
  0O   1pz       -0.192130  0.147099
  0O   1px       -0.105526  0.050929
  0O   1py       -0.156506  0.107207
  0O   2pz       -0.558297  0.378129
  0O   2px       -0.239318  0.702543
  0O   2py       -0.495625  0.165433
  0O   1dz2       0.263922 -0.444740
  0O   1dxz       0.365302 -0.259566
  0O   1dyz       0.711228 -0.423539
  0O   1dx2y2    -0.126217  0.503306
  0O   1dxy       0.180973 -0.391475
  1O   1s         0.029580  0.038414
  1O   2s        -0.005130  0.276320
  1O   3s         0.926289 -0.054363
  1O   1pz       -0.047542 -0.045801
  1O   1px        0.112605  0.056623
  1O   1py        0.240020  0.174420
  1O   2pz       -0.116315 -0.156083
  1O   2px        0.259093  0.718310
  1O   2py        0.730768  0.351596
  1O   1dz2      -0.462101 -0.000088
  1O   1dxz      -0.165699 -0.003578
  1O   1dyz      -0.299606 -0.201127
  1O   1dx2y2    -0.513215 -0.744165
  1O   1dxy       0.404421  0.506872
  2H   1s        -1.073848  0.717901
  2H   2s        -0.219538  0.217498
  2H   1pz       -0.574850  0.458131
  2H   1px       -0.265199  0.181454
  2H   1py       -0.469147  0.346668
  3H   1s        -1.073935 -0.717936
  3H   2s        -0.219555 -0.217500
  3H   1pz       -0.144357 -0.133510
  3H   1px        0.286442  0.198920
  3H   1py        0.719772  0.552830

MULLIKEN ATOMIC CHARGES
-----------------------
   0 O :   -0.184069
   1 O :   -0.184070
   2 H :    0.184069
   3 H :    0.184070
Sum of atomic charges:   -0.0000000

LOEWDIN ATOMIC CHARGES
----------------------
   0 O :   -0.077375
   1 O :   -0.077376
   2 H :    0.077375
   3 H :    0.077376

  Mayer bond orders larger than 0.100000
B(  0-O ,  1-O ) :   0.9788 B(  0-O ,  2-H ) :   0.9777 B(  1-O ,  3-H ) :   0.9777

Dispersion correction           -0.002996419
FINAL SINGLE POINT ENERGY      -151.365205433068

DIPOLE MOMENT
-------------
                                X             Y             Z
Electronic contribution:     -0.00577      -0.06815       0.19559
Nuclear contribution   :      0.02439       0.28810      -0.82685
                        -----------------------------------------
Total Dipole Moment    :      0.01862       0.21994      -0.63126
                        -----------------------------------------
Magnitude (a.u.)       :      0.66874
Magnitude (Debye)      :      1.69979

Dispersion correction in the Hessian             ...
Dispersion correction Hessian from Numerical Differentiation:

VIBRATIONAL FREQUENCIES
-----------------------

Scaling factor for frequencies =  1.000000000  (already applied!)

   0:         0.00 cm**-1
   1:         0.00 cm**-1
   2:         0.00 cm**-1
   3:         0.00 cm**-1
   4:         0.00 cm**-1
   5:         0.00 cm**-1
   6:       324.01 cm**-1
   7:       874.24 cm**-1
   8:      1257.61 cm**-1
   9:      1393.36 cm**-1
  10:      3571.00 cm**-1
  11:      3571.37 cm**-1

IR SPECTRUM
-----------

 Mode    freq (cm**-1)   T**2         TX         TY         TZ
-------------------------------------------------------------------
   6:       324.01  177.807382  ( -0.371449  -4.385874  12.587038)
   7:       874.24    1.370077  (  0.032480   0.385077  -1.104870)
   8:      1257.61   88.394688  ( -9.222281   1.794353   0.352880)
   9:      1393.36    0.158807  (  0.013035   0.130878  -0.376175)
  10:      3571.00   32.189330  ( -3.835957  -3.943150  -1.387925)
  11:      3571.37    5.821465  (  0.082015  -0.638387   2.325339)

--------------------------
THERMOCHEMISTRY AT 298.15K
--------------------------

Temperature         ... 298.15 K
Pressure            ... 1.00 atm
Total Mass          ... 34.01 AMU

Throughout the following assumptions are being made:
  (1) The electronic state is orbitally nondegenerate
  (2) There are no thermally accessible electronically excited states
  (3) Hindered rotations indicated by low frequency modes are not
      treated as such but are treated as vibrations and this may
      cause some error
  (4) All equations used are the standard statistical mechanics
      equations for an ideal gas
  (5) All vibrations are strictly harmonic

freq.     324.01  E(vib)   ...       0.25
freq.     874.24  E(vib)   ...       0.04
freq.    1257.61  E(vib)   ...       0.01
freq.    1393.36  E(vib)   ...       0.00
freq.    3571.00  E(vib)   ...       0.00
freq.    3571.37  E(vib)   ...       0.00

------------
INNER ENERGY
------------

The inner energy is: U= E(el) + E(ZPE) + E(vib) + E(rot) + E(trans)
    E(el)   - is the total energy from the electronic structure calculation
              = E(kin-el) + E(nuc-el) + E(el-el) + E(nuc-nuc)
    E(ZPE)  - the the zero temperature vibrational energy from the frequency calculation
    E(vib)  - the the finite temperature correction to E(ZPE) due to population
              of excited vibrational states
    E(rot)  - is the rotational thermal energy
    E(trans)- is the translational thermal energy

Summary of contributions to the inner energy U:
Electronic energy                ...   -151.36520543 Eh
Zero point energy                ...      0.02504067 Eh      15.71 kcal/mol
Thermal vibrational correction   ...      0.00047145 Eh       0.30 kcal/mol
Thermal rotational correction    ...      0.00141627 Eh       0.89 kcal/mol
Thermal translational correction ...      0.00141627 Eh       0.89 kcal/mol
-----------------------------------------------------------------------
Total thermal energy                   -151.33686077 Eh

Summary of corrections to the electronic energy:
(perhaps to be used in another calculation)
Total thermal correction                  0.00330399 Eh       2.07 kcal/mol
Non-thermal (ZPE) correction              0.02504067 Eh      15.71 kcal/mol
-----------------------------------------------------------------------
Total correction                          0.02834466 Eh      17.79 kcal/mol

--------
ENTHALPY
--------

The enthalpy is H = U + kB*T
                kB is Boltzmann's constant
Total free energy                 ...   -151.33686077 Eh
Thermal Enthalpy correction       ...      0.00094421 Eh       0.59 kcal/mol
-----------------------------------------------------------------------
Total Enthalpy                    ...   -151.33591657 Eh

Note: Only C1 symmetry has been detected, increase convergence thresholds
      if your molecule has a higher symmetry. Symmetry factor of 1.0 is
      used for the rotational entropy correction.

Note: Rotational entropy computed according to Herzberg
Infrared and Raman Spectra, Chapter V,1, Van Nostrand Reinhold, 1945
Point Group:  C1, Symmetry Number:   1
Rotational constants in cm-1:     9.676590     0.859441     0.825512

Vibrational entropy computed according to the QRRHO of S. Grimme
Chem.Eur.J. 2012 18 9955

-------
ENTROPY
-------

The entropy contributions are T*S = T*(S(el)+S(vib)+S(rot)+S(trans))
     S(el)   - electronic entropy
     S(vib)  - vibrational entropy
     S(rot)  - rotational entropy
     S(trans)- translational entropy
The entropies will be listed as mutliplied by the temperature to get
units of energy

Electronic entropy                ...      0.00000000 Eh      0.00 kcal/mol
Vibrational entropy               ...      0.00071235 Eh      0.45 kcal/mol
Rotational entropy                ...      0.00860134 Eh      5.40 kcal/mol
Translational entropy             ...      0.01734394 Eh     10.88 kcal/mol
-----------------------------------------------------------------------
Final entropy term                ...      0.02665763 Eh     16.73 kcal/mol

In case the symmetry of your molecule has not been determined correctly
or in case you have a reason to use a different symmetry number we print
out the resulting rotational entropy values for sn=1,12 :
 --------------------------------------------------------
|  sn= 1 | S(rot)=       0.00860134 Eh      5.40 kcal/mol|
|  sn= 2 | S(rot)=       0.00794688 Eh      4.99 kcal/mol|
|  sn= 3 | S(rot)=       0.00756405 Eh      4.75 kcal/mol|
|  sn= 4 | S(rot)=       0.00729242 Eh      4.58 kcal/mol|
|  sn= 5 | S(rot)=       0.00708173 Eh      4.44 kcal/mol|
|  sn= 6 | S(rot)=       0.00690959 Eh      4.34 kcal/mol|
|  sn= 7 | S(rot)=       0.00676404 Eh      4.24 kcal/mol|
|  sn= 8 | S(rot)=       0.00663797 Eh      4.17 kcal/mol|
|  sn= 9 | S(rot)=       0.00652676 Eh      4.10 kcal/mol|
|  sn=10 | S(rot)=       0.00642728 Eh      4.03 kcal/mol|
|  sn=11 | S(rot)=       0.00633729 Eh      3.98 kcal/mol|
|  sn=12 | S(rot)=       0.00625513 Eh      3.93 kcal/mol|
 --------------------------------------------------------

-------------------
GIBBS FREE ENERGY
-------------------

The Gibbs free energy is G = H - T*S

Total enthalpy                    ...   -151.33591657 Eh
Total entropy correction          ...     -0.02665763 Eh    -16.73 kcal/mol
-----------------------------------------------------------------------
Final Gibbs free energy         ...   -151.36257419 Eh

For completeness - the Gibbs free energy minus the electronic energy
G-E(el)                           ...      0.00263124 Eh      1.65 kcal/mol

                             ****ORCA TERMINATED NORMALLY****
TOTAL RUN TIME: 0 days 0 hours 0 minutes 59 seconds 378 msec
