                         Program Version 4.2.1 -  RELEASE  -
|  1> ! B97-3c Opt Freq TightOpt TightSCF
|  2>
|  3> %pal
|  4>  nprocs 2
|  5> end
|  6>
|  7> *xyz 0 1
|  8> N       -4.7829099120      1.5445242582     -1.3081727199
|  9> N       -3.4981301349      1.5530387471     -0.7409209203
| 10> H       -5.4731224916      1.3813847861     -0.5402022283
| 11> H       -4.9757642310      2.4823335631     -1.7331170679
| 12> H       -3.3848346854      2.4192083230     -0.1628447567
| 13> H       -2.8020113381      1.5823755496     -1.5202438281
| 14> *
| 15>
| 16>                          ****END OF INPUT****
 Total Charge           Charge          ....    0
 Multiplicity           Mult            ....    1
 Number of Electrons    NEL             ....   18
Dispersion correction           -0.004847872
FINAL SINGLE POINT ENERGY      -111.811056257054
Dispersion correction            ... done
Dispersion correction           -0.004839673
FINAL SINGLE POINT ENERGY      -111.815944191659
Dispersion correction            ... done
Dispersion correction           -0.004832736
FINAL SINGLE POINT ENERGY      -111.816545418096
Dispersion correction            ... done
FINAL SINGLE POINT ENERGY      -111.816987478209
FINAL SINGLE POINT ENERGY      -111.817014298196
Dispersion correction           -0.004823976
FINAL SINGLE POINT ENERGY      -111.817016447541
Dispersion correction            ... done
Dispersion correction           -0.004824058
FINAL SINGLE POINT ENERGY      -111.817016547937
Dispersion correction            ... done
                    ***********************HURRAY********************

CARTESIAN COORDINATES (ANGSTROEM)
---------------------------------
  N     -4.783595    1.601606   -1.336429
  N     -3.502192    1.604409   -0.703520
  H     -5.454835    1.275408   -0.655354
  H     -5.069941    2.531114   -1.627664
  H     -3.296184    2.493068   -0.257846
  H     -2.810025    1.457260   -1.424689

 Multiplicity           Mult            ....    1
 Number of Electrons    NEL             ....   18
 Basis Dimension        Dim             ....   50

ORBITAL ENERGIES
----------------

  NO   OCC          E(Eh)            E(eV)
   0   2.0000     -13.991028      -380.7152
   1   2.0000     -13.990971      -380.7137
   2   2.0000      -0.872599       -23.7446
   3   2.0000      -0.685134       -18.6435
   4   2.0000      -0.455824       -12.4036
   5   2.0000      -0.440117       -11.9762
   6   2.0000      -0.408515       -11.1162
   7   2.0000      -0.209205        -5.6928
   8   2.0000      -0.203762        -5.5446
   9   0.0000       0.014955         0.4070
  10   0.0000       0.044377         1.2076
  11   0.0000       0.087172         2.3721
  12   0.0000       0.098687         2.6854
  13   0.0000       0.169661         4.6167

MULLIKEN ATOMIC CHARGES
-----------------------
   0 N :   -0.616241
   1 N :   -0.616624
   2 H :    0.320682
   3 H :    0.295733
   4 H :    0.295649
   5 H :    0.320802
Sum of atomic charges:   -0.0000000

LOEWDIN ATOMIC CHARGES
----------------------
   0 N :   -0.488468
   1 N :   -0.488418
   2 H :    0.251828
   3 H :    0.236619
   4 H :    0.236599
   5 H :    0.251840

  Mayer bond orders larger than 0.100000
B(  0-N ,  1-N ) :   0.9822 B(  0-N ,  2-H ) :   0.8804 B(  0-N ,  3-H ) :   0.8845
B(  1-N ,  4-H ) :   0.8846 B(  1-N ,  5-H ) :   0.8804

Dispersion correction           -0.004824057
FINAL SINGLE POINT ENERGY      -111.817016539583

DIPOLE MOMENT
-------------
                                X             Y             Z
Electronic contribution:      0.01101      -0.24513      -0.02038
Nuclear contribution   :     -0.04870       1.10247       0.09374
                        -----------------------------------------
Total Dipole Moment    :     -0.03770       0.85734       0.07336
                        -----------------------------------------
Magnitude (a.u.)       :      0.86130
Magnitude (Debye)      :      2.18925

Dispersion correction in the Hessian             ... done   (      0.4 sec)

VIBRATIONAL FREQUENCIES
-----------------------

Scaling factor for frequencies =  1.000000000  (already applied!)

   0:         0.00 cm**-1
   1:         0.00 cm**-1
   2:         0.00 cm**-1
   3:         0.00 cm**-1
   4:         0.00 cm**-1
   5:         0.00 cm**-1
   6:       460.31 cm**-1
   7:       812.18 cm**-1
   8:      1005.46 cm**-1
   9:      1117.49 cm**-1
  10:      1308.30 cm**-1
  11:      1340.88 cm**-1
  12:      1705.13 cm**-1
  13:      1727.39 cm**-1
  14:      3379.42 cm**-1
  15:      3391.81 cm**-1
  16:      3504.54 cm**-1
  17:      3512.50 cm**-1

IR SPECTRUM
-----------

 Mode    freq (cm**-1)   T**2         TX         TY         TZ
-------------------------------------------------------------------
   6:       460.31   43.092172  (  0.285210  -6.534751  -0.554846)
   7:       812.18   81.952958  ( -0.396844   9.012180   0.759007)
   8:      1005.46  156.066225  (  4.605003  -0.773768  11.587125)
   9:      1117.49   20.410785  (  0.195556  -4.497966  -0.375287)
  10:      1308.30    4.676021  ( -1.859194  -0.170937   1.090963)
  11:      1340.88    2.583569  ( -0.075101   1.600141   0.132205)
  12:      1705.13   23.039842  ( -2.532429  -0.474014   4.049933)
  13:      1727.39   18.450923  ( -0.203833   4.274247   0.374414)
  14:      3379.42   36.955542  ( -5.249911   0.034819  -3.064762)
  15:      3391.81    7.899764  ( -0.109427   2.797374   0.249977)
  16:      3504.54    0.764386  (  0.017705  -0.871102  -0.072487)
  17:      3512.50    0.368821  (  0.586758   0.029806  -0.153779)

--------------------------
THERMOCHEMISTRY AT 298.15K
--------------------------

Temperature         ... 298.15 K
Pressure            ... 1.00 atm
Total Mass          ... 32.05 AMU

Throughout the following assumptions are being made:
  (1) The electronic state is orbitally nondegenerate
  (2) There are no thermally accessible electronically excited states
  (3) Hindered rotations indicated by low frequency modes are not
      treated as such but are treated as vibrations and this may
      cause some error
  (4) All equations used are the standard statistical mechanics
      equations for an ideal gas
  (5) All vibrations are strictly harmonic

freq.     460.31  E(vib)   ...       0.16
freq.     812.18  E(vib)   ...       0.05
freq.    1005.46  E(vib)   ...       0.02
freq.    1117.49  E(vib)   ...       0.01
freq.    1308.30  E(vib)   ...       0.01
freq.    1340.88  E(vib)   ...       0.01
freq.    1705.13  E(vib)   ...       0.00
freq.    1727.39  E(vib)   ...       0.00
freq.    3379.42  E(vib)   ...       0.00
freq.    3391.81  E(vib)   ...       0.00
freq.    3504.54  E(vib)   ...       0.00
freq.    3512.50  E(vib)   ...       0.00

------------
INNER ENERGY
------------

The inner energy is: U= E(el) + E(ZPE) + E(vib) + E(rot) + E(trans)
    E(el)   - is the total energy from the electronic structure calculation
              = E(kin-el) + E(nuc-el) + E(el-el) + E(nuc-nuc)
    E(ZPE)  - the the zero temperature vibrational energy from the frequency calculation
    E(vib)  - the the finite temperature correction to E(ZPE) due to population
              of excited vibrational states
    E(rot)  - is the rotational thermal energy
    E(trans)- is the translational thermal energy

Summary of contributions to the inner energy U:
Electronic energy                ...   -111.81701654 Eh
Zero point energy                ...      0.05300250 Eh      33.26 kcal/mol
Thermal vibrational correction   ...      0.00041377 Eh       0.26 kcal/mol
Thermal rotational correction    ...      0.00141627 Eh       0.89 kcal/mol
Thermal translational correction ...      0.00141627 Eh       0.89 kcal/mol
-----------------------------------------------------------------------
Total thermal energy                   -111.76076772 Eh

Summary of corrections to the electronic energy:
(perhaps to be used in another calculation)
Total thermal correction                  0.00324632 Eh       2.04 kcal/mol
Non-thermal (ZPE) correction              0.05300250 Eh      33.26 kcal/mol
-----------------------------------------------------------------------
Total correction                          0.05624882 Eh      35.30 kcal/mol

--------
ENTHALPY
--------

The enthalpy is H = U + kB*T
                kB is Boltzmann's constant
Total free energy                 ...   -111.76076772 Eh
Thermal Enthalpy correction       ...      0.00094421 Eh       0.59 kcal/mol
-----------------------------------------------------------------------
Total Enthalpy                    ...   -111.75982351 Eh

Note: Only C1 symmetry has been detected, increase convergence thresholds
      if your molecule has a higher symmetry. Symmetry factor of 1.0 is
      used for the rotational entropy correction.

Note: Rotational entropy computed according to Herzberg
Infrared and Raman Spectra, Chapter V,1, Van Nostrand Reinhold, 1945
Point Group:  C1, Symmetry Number:   1
Rotational constants in cm-1:     4.843710     0.815468     0.815254

Vibrational entropy computed according to the QRRHO of S. Grimme
Chem.Eur.J. 2012 18 9955

-------
ENTROPY
-------

The entropy contributions are T*S = T*(S(el)+S(vib)+S(rot)+S(trans))
     S(el)   - electronic entropy
     S(vib)  - vibrational entropy
     S(rot)  - rotational entropy
     S(trans)- translational entropy
The entropies will be listed as mutliplied by the temperature to get
units of energy

Electronic entropy                ...      0.00000000 Eh      0.00 kcal/mol
Vibrational entropy               ...      0.00055719 Eh      0.35 kcal/mol
Rotational entropy                ...      0.00895873 Eh      5.62 kcal/mol
Translational entropy             ...      0.01725953 Eh     10.83 kcal/mol
-----------------------------------------------------------------------
Final entropy term                ...      0.02677545 Eh     16.80 kcal/mol

In case the symmetry of your molecule has not been determined correctly
or in case you have a reason to use a different symmetry number we print
out the resulting rotational entropy values for sn=1,12 :
 --------------------------------------------------------
|  sn= 1 | S(rot)=       0.00895873 Eh      5.62 kcal/mol|
|  sn= 2 | S(rot)=       0.00830428 Eh      5.21 kcal/mol|
|  sn= 3 | S(rot)=       0.00792144 Eh      4.97 kcal/mol|
|  sn= 4 | S(rot)=       0.00764982 Eh      4.80 kcal/mol|
|  sn= 5 | S(rot)=       0.00743913 Eh      4.67 kcal/mol|
|  sn= 6 | S(rot)=       0.00726699 Eh      4.56 kcal/mol|
|  sn= 7 | S(rot)=       0.00712144 Eh      4.47 kcal/mol|
|  sn= 8 | S(rot)=       0.00699536 Eh      4.39 kcal/mol|
|  sn= 9 | S(rot)=       0.00688415 Eh      4.32 kcal/mol|
|  sn=10 | S(rot)=       0.00678468 Eh      4.26 kcal/mol|
|  sn=11 | S(rot)=       0.00669469 Eh      4.20 kcal/mol|
|  sn=12 | S(rot)=       0.00661253 Eh      4.15 kcal/mol|
 --------------------------------------------------------

-------------------
GIBBS FREE ENERGY
-------------------

The Gibbs free energy is G = H - T*S

Total enthalpy                    ...   -111.75982351 Eh
Total entropy correction          ...     -0.02677545 Eh    -16.80 kcal/mol
-----------------------------------------------------------------------
Final Gibbs free energy         ...   -111.78659896 Eh

For completeness - the Gibbs free energy minus the electronic energy
G-E(el)                           ...      0.03041758 Eh     19.09 kcal/mol

                             ****ORCA TERMINATED NORMALLY****
TOTAL RUN TIME: 0 days 0 hours 0 minutes 24 seconds 939 msec
