                         Program Version 4.2.1 -  RELEASE  -
|  1> ! B97-3c Opt Freq TightOpt TightSCF
|  2>
|  3> %pal
|  4>  nprocs 4
|  5> end
|  6>
|  7> *xyz 0 5
|  8> F       -5.1042271947      2.9013017714     -0.0000000000
|  9> Mn      -4.0268228867      1.3596705929     -0.0000000000
| 10> Mn      -1.2470758495      0.8892513226     -0.0000000000
| 11> F       -5.5514941414      0.2583961274     -0.0000000000
| 12> F       -2.4291918123      2.3521208854     -0.0000000000
| 13> F       -2.8447084913     -0.1032021214     -0.0000000000
| 14> F        0.2775901367      1.9905315961     -0.0000000000
| 15> F       -0.1696661468     -0.6523757700     -0.0000000000
| 16> *
| 17>
| 18>                          ****END OF INPUT****
 Total Charge           Charge          ....    0
 Multiplicity           Mult            ....    5
 Number of Electrons    NEL             ....  104
Dispersion correction           -0.015468131
FINAL SINGLE POINT ENERGY     -2901.436582200179
Dispersion correction            ... done
Dispersion correction           -0.015529183
FINAL SINGLE POINT ENERGY     -2901.450884132281
Dispersion correction            ... done
Dispersion correction           -0.015672258
FINAL SINGLE POINT ENERGY     -2901.474188282335
Dispersion correction            ... done
FINAL SINGLE POINT ENERGY     -2901.482138655849
FINAL SINGLE POINT ENERGY     -2901.482807255284
FINAL SINGLE POINT ENERGY     -2901.484171023772
FINAL SINGLE POINT ENERGY     -2901.484578533593
FINAL SINGLE POINT ENERGY     -2901.484633223176
FINAL SINGLE POINT ENERGY     -2901.484650406074
FINAL SINGLE POINT ENERGY     -2901.484666680566
FINAL SINGLE POINT ENERGY     -2901.484621855856
FINAL SINGLE POINT ENERGY     -2901.484676882670
Dispersion correction           -0.015529962
FINAL SINGLE POINT ENERGY     -2901.484677812850
Dispersion correction            ... done
Dispersion correction           -0.015529402
FINAL SINGLE POINT ENERGY     -2901.484677701789
Dispersion correction            ... done
                    ***********************HURRAY********************

CARTESIAN COORDINATES (ANGSTROEM)
---------------------------------
  F     -5.023013    2.850000    0.000280
  Mn    -4.139077    1.378794   -0.000586
  Mn    -1.134822    0.870130    0.000504
  F     -5.457958    0.279961    0.000092
  F     -2.439708    2.288943    0.000002
  F     -2.834191   -0.040019   -0.000036
  F      0.184059    1.968962   -0.000239
  F     -0.250887   -0.601076   -0.000017

 Multiplicity           Mult            ....    5
 Number of Electrons    NEL             ....  104
 Basis Dimension        Dim             ....  180

ORBITAL ENERGIES
----------------
                 SPIN UP ORBITALS
  NO   OCC          E(Eh)            E(eV)
   0   1.0000    -234.177856     -6372.3034
   1   1.0000    -234.177853     -6372.3033
   2   1.0000     -27.034172      -735.6372
   3   1.0000     -27.034152      -735.6367
   4   1.0000     -24.285720      -660.8480
   5   1.0000     -24.285715      -660.8479
   6   1.0000     -24.257329      -660.0755
   7   1.0000     -24.257327      -660.0754
   8   1.0000     -24.257227      -660.0727
   9   1.0000     -24.257225      -660.0727
  10   1.0000     -23.221647      -631.8931
  11   1.0000     -23.221646      -631.8931
  12   1.0000     -23.211721      -631.6230
  13   1.0000     -23.211721      -631.6230
  14   1.0000     -23.201240      -631.3378
  15   1.0000     -23.201236      -631.3377
  16   1.0000      -3.165251       -86.1309
  17   1.0000      -3.165170       -86.1287
  18   1.0000      -2.095796       -57.0295
  19   1.0000      -2.095580       -57.0236
  20   1.0000      -2.059438       -56.0402
  21   1.0000      -2.058114       -56.0041
  22   1.0000      -2.054286       -55.9000
  23   1.0000      -2.054209       -55.8979
  24   1.0000      -1.127687       -30.6859
  25   1.0000      -1.109512       -30.1913
  26   1.0000      -1.083449       -29.4821
  27   1.0000      -1.081255       -29.4224
  28   1.0000      -1.078761       -29.3546
  29   1.0000      -1.078570       -29.3494
  30   1.0000      -0.497836       -13.5468
  31   1.0000      -0.487223       -13.2580
  32   1.0000      -0.486004       -13.2248
  33   1.0000      -0.462117       -12.5748
  34   1.0000      -0.446445       -12.1484
  35   1.0000      -0.437494       -11.9048
  36   1.0000      -0.431151       -11.7322
  37   1.0000      -0.428621       -11.6634
  38   1.0000      -0.422518       -11.4973
  39   1.0000      -0.409612       -11.1461
  40   1.0000      -0.408742       -11.1224
  41   1.0000      -0.408442       -11.1143
  42   1.0000      -0.407298       -11.0831
  43   1.0000      -0.405587       -11.0366
  44   1.0000      -0.389801       -10.6070
  45   1.0000      -0.389089       -10.5877
  46   1.0000      -0.366478        -9.9724
  47   1.0000      -0.358471        -9.7545
  48   1.0000      -0.301823        -8.2130
  49   1.0000      -0.291295        -7.9265
  50   1.0000      -0.290096        -7.8939
  51   1.0000      -0.287195        -7.8150
  52   1.0000      -0.286358        -7.7922
  53   1.0000      -0.282864        -7.6971
  54   0.0000      -0.256527        -6.9804
  55   0.0000      -0.247298        -6.7293
  56   0.0000      -0.200667        -5.4604
  57   0.0000      -0.178723        -4.8633
  58   0.0000      -0.043081        -1.1723

                 SPIN DOWN ORBITALS
  NO   OCC          E(Eh)            E(eV)
   0   1.0000    -234.177271     -6372.2875
   1   1.0000    -234.177267     -6372.2874
   2   1.0000     -26.997714      -734.6451
   3   1.0000     -26.997695      -734.6446
   4   1.0000     -24.285482      -660.8416
   5   1.0000     -24.285478      -660.8414
   6   1.0000     -24.256445      -660.0514
   7   1.0000     -24.256444      -660.0514
   8   1.0000     -24.256344      -660.0487
   9   1.0000     -24.256343      -660.0486
  10   1.0000     -23.198646      -631.2673
  11   1.0000     -23.198646      -631.2672
  12   1.0000     -23.187545      -630.9652
  13   1.0000     -23.187544      -630.9652
  14   1.0000     -23.167205      -630.4117
  15   1.0000     -23.167203      -630.4116
  16   1.0000      -3.078646       -83.7742
  17   1.0000      -3.078547       -83.7715
  18   1.0000      -2.021717       -55.0137
  19   1.0000      -2.020291       -54.9749
  20   1.0000      -1.983299       -53.9683
  21   1.0000      -1.983001       -53.9602
  22   1.0000      -1.946054       -52.9548
  23   1.0000      -1.945966       -52.9524
  24   1.0000      -1.126764       -30.6608
  25   1.0000      -1.108713       -30.1696
  26   1.0000      -1.080526       -29.4026
  27   1.0000      -1.078496       -29.3474
  28   1.0000      -1.075208       -29.2579
  29   1.0000      -1.075015       -29.2527
  30   1.0000      -0.484134       -13.1739
  31   1.0000      -0.482398       -13.1267
  32   1.0000      -0.479591       -13.0503
  33   1.0000      -0.447209       -12.1692
  34   1.0000      -0.431229       -11.7343
  35   1.0000      -0.425120       -11.5681
  36   1.0000      -0.423497       -11.5239
  37   1.0000      -0.422140       -11.4870
  38   1.0000      -0.413803       -11.2602
  39   1.0000      -0.406610       -11.0644
  40   1.0000      -0.397756       -10.8235
  41   1.0000      -0.391501       -10.6533
  42   1.0000      -0.389150       -10.5893
  43   1.0000      -0.389090       -10.5877
  44   1.0000      -0.384469       -10.4619
  45   1.0000      -0.376632       -10.2487
  46   1.0000      -0.367243        -9.9932
  47   1.0000      -0.360926        -9.8213
  48   1.0000      -0.253145        -6.8884
  49   1.0000      -0.248107        -6.7513
  50   0.0000      -0.201498        -5.4830
  51   0.0000      -0.197918        -5.3856
  52   0.0000      -0.197551        -5.3756
  53   0.0000      -0.196896        -5.3578
  54   0.0000      -0.189493        -5.1564

MULLIKEN ATOMIC CHARGES AND SPIN POPULATIONS
--------------------------------------------
   0 F :   -0.377875    0.026237
   1 Mn:    1.191390    1.966256
   2 Mn:    1.191390    1.966256
   3 F :   -0.377964    0.026157
   4 F :   -0.435551   -0.018650
   5 F :   -0.435551   -0.018650
   6 F :   -0.377964    0.026157
   7 F :   -0.377875    0.026237
Sum of atomic charges         :   -0.0000000

LOEWDIN ATOMIC CHARGES AND SPIN POPULATIONS
-------------------------------------------
   0 F :   -0.244631    0.035822
   1 Mn:    0.778248    1.926734
   2 Mn:    0.778248    1.926734
   3 F :   -0.244841    0.035756
   4 F :   -0.288776    0.001689
   5 F :   -0.288776    0.001689
   6 F :   -0.244841    0.035755
   7 F :   -0.244631    0.035822

  Mayer bond orders larger than 0.100000
B(  0-F ,  1-Mn) :   0.9861 B(  1-Mn,  3-F ) :   0.9860 B(  1-Mn,  4-F ) :   0.4303
B(  1-Mn,  5-F ) :   0.4304 B(  2-Mn,  4-F ) :   0.4304 B(  2-Mn,  5-F ) :   0.4303
B(  2-Mn,  6-F ) :   0.9860 B(  2-Mn,  7-F ) :   0.9861

Dispersion correction           -0.015528590
FINAL SINGLE POINT ENERGY     -2901.484677672951

DIPOLE MOMENT
-------------
                                X             Y             Z
Electronic contribution:      0.00000       0.00000      -0.00029
Nuclear contribution   :      0.00000      -0.00000       0.00011
                        -----------------------------------------
Total Dipole Moment    :      0.00000       0.00000      -0.00019
                        -----------------------------------------
Magnitude (a.u.)       :      0.00019
Magnitude (Debye)      :      0.00047

Dispersion correction in the Hessian             ... done   (      0.6 sec)

VIBRATIONAL FREQUENCIES
-----------------------

Scaling factor for frequencies =  1.000000000  (already applied!)

   0:         0.00 cm**-1
   1:         0.00 cm**-1
   2:         0.00 cm**-1
   3:         0.00 cm**-1
   4:         0.00 cm**-1
   5:         0.00 cm**-1
   6:       -79.46 cm**-1 ***imaginary mode***
   7:        53.96 cm**-1
   8:       118.94 cm**-1
   9:       129.99 cm**-1
  10:       170.89 cm**-1
  11:       183.94 cm**-1
  12:       191.19 cm**-1
  13:       231.43 cm**-1
  14:       240.85 cm**-1
  15:       270.21 cm**-1
  16:       377.69 cm**-1
  17:       407.38 cm**-1
  18:       479.93 cm**-1
  19:       490.01 cm**-1
  20:       692.94 cm**-1
  21:       702.10 cm**-1
  22:       720.54 cm**-1
  23:       727.13 cm**-1

IR SPECTRUM
-----------

 Mode    freq (cm**-1)   T**2         TX         TY         TZ
-------------------------------------------------------------------
   7:        53.96    3.062032  (  0.002241  -0.000358   1.749865)
   8:       118.94    0.006043  (  0.000478   0.005723  -0.077525)
   9:       129.99    3.718226  ( -0.260843  -1.910546  -0.000137)
  10:       170.89    0.000001  (  0.000038   0.000024   0.000733)
  11:       183.94    0.000002  (  0.001087  -0.000620  -0.000303)
  12:       191.19    0.000000  ( -0.000009   0.000015  -0.000274)
  13:       231.43   51.681689  (  0.012257  -0.001902   7.188987)
  14:       240.85   18.626393  ( -4.260294   0.689972   0.014985)
  15:       270.21    0.000000  (  0.000186  -0.000141   0.000522)
  16:       377.69    0.000000  (  0.000110  -0.000118   0.000237)
  17:       407.38   19.995118  ( -0.775921  -4.403756  -0.000352)
  18:       479.93  184.163707  ( 13.382016  -2.255070   0.003976)
  19:       490.01    0.000000  (  0.000441  -0.000491   0.000219)
  20:       692.94  351.648418  ( 18.460007  -3.297956  -0.006352)
  21:       702.10    0.000002  ( -0.000133   0.000018  -0.001235)
  22:       720.54    0.000001  (  0.000034  -0.000733  -0.000693)
  23:       727.13  291.832092  (  3.019004  16.814211  -0.000219)

--------------------------
THERMOCHEMISTRY AT 298.15K
--------------------------

Temperature         ... 298.15 K
Pressure            ... 1.00 atm
Total Mass          ... 223.87 AMU

Throughout the following assumptions are being made:
  (1) The electronic state is orbitally nondegenerate
      but the spin degeneracy is treated
  (2) There are no thermally accessible electronically excited states
  (3) Hindered rotations indicated by low frequency modes are not
      treated as such but are treated as vibrations and this may
      cause some error
  (4) All equations used are the standard statistical mechanics
      equations for an ideal gas
  (5) All vibrations are strictly harmonic

freq.      53.96  E(vib)   ...       0.52
freq.     118.94  E(vib)   ...       0.44
freq.     129.99  E(vib)   ...       0.43
freq.     170.89  E(vib)   ...       0.38
freq.     183.94  E(vib)   ...       0.37
freq.     191.19  E(vib)   ...       0.36
freq.     231.43  E(vib)   ...       0.32
freq.     240.85  E(vib)   ...       0.31
freq.     270.21  E(vib)   ...       0.29
freq.     377.69  E(vib)   ...       0.21
freq.     407.38  E(vib)   ...       0.19
freq.     479.93  E(vib)   ...       0.15
freq.     490.01  E(vib)   ...       0.15
freq.     692.94  E(vib)   ...       0.07
freq.     702.10  E(vib)   ...       0.07
freq.     720.54  E(vib)   ...       0.07
freq.     727.13  E(vib)   ...       0.06

------------
INNER ENERGY
------------

The inner energy is: U= E(el) + E(ZPE) + E(vib) + E(rot) + E(trans)
    E(el)   - is the total energy from the electronic structure calculation
              = E(kin-el) + E(nuc-el) + E(el-el) + E(nuc-nuc)
    E(ZPE)  - the the zero temperature vibrational energy from the frequency calculation
    E(vib)  - the the finite temperature correction to E(ZPE) due to population
              of excited vibrational states
    E(rot)  - is the rotational thermal energy
    E(trans)- is the translational thermal energy

Summary of contributions to the inner energy U:
Electronic energy                ...  -2901.48467767 Eh
Zero point energy                ...      0.01409982 Eh       8.85 kcal/mol
Thermal vibrational correction   ...      0.00698395 Eh       4.38 kcal/mol
Thermal rotational correction    ...      0.00141627 Eh       0.89 kcal/mol
Thermal translational correction ...      0.00141627 Eh       0.89 kcal/mol
-----------------------------------------------------------------------
Total thermal energy                  -2901.46076136 Eh

Summary of corrections to the electronic energy:
(perhaps to be used in another calculation)
Total thermal correction                  0.00981649 Eh       6.16 kcal/mol
Non-thermal (ZPE) correction              0.01409982 Eh       8.85 kcal/mol
-----------------------------------------------------------------------
Total correction                          0.02391631 Eh      15.01 kcal/mol

--------
ENTHALPY
--------

The enthalpy is H = U + kB*T
                kB is Boltzmann's constant
Total free energy                 ...  -2901.46076136 Eh
Thermal Enthalpy correction       ...      0.00094421 Eh       0.59 kcal/mol
-----------------------------------------------------------------------
Total Enthalpy                    ...  -2901.45981715 Eh

Note: Only C1 symmetry has been detected, increase convergence thresholds
      if your molecule has a higher symmetry. Symmetry factor of 1.0 is
      used for the rotational entropy correction.

Note: Rotational entropy computed according to Herzberg
Infrared and Raman Spectra, Chapter V,1, Van Nostrand Reinhold, 1945
Point Group:  C1, Symmetry Number:   1
Rotational constants in cm-1:     0.092584     0.021478     0.017433

Vibrational entropy computed according to the QRRHO of S. Grimme
Chem.Eur.J. 2012 18 9955

-------
ENTROPY
-------

The entropy contributions are T*S = T*(S(el)+S(vib)+S(rot)+S(trans))
     S(el)   - electronic entropy
     S(vib)  - vibrational entropy
     S(rot)  - rotational entropy
     S(trans)- translational entropy
The entropies will be listed as mutliplied by the temperature to get
units of energy

Electronic entropy                ...      0.00151960 Eh      0.95 kcal/mol
Vibrational entropy               ...      0.01242114 Eh      7.79 kcal/mol
Rotational entropy                ...      0.01435906 Eh      9.01 kcal/mol
Translational entropy             ...      0.02001260 Eh     12.56 kcal/mol
-----------------------------------------------------------------------
Final entropy term                ...      0.04831239 Eh     30.32 kcal/mol

In case the symmetry of your molecule has not been determined correctly
or in case you have a reason to use a different symmetry number we print
out the resulting rotational entropy values for sn=1,12 :
 --------------------------------------------------------
|  sn= 1 | S(rot)=       0.01435906 Eh      9.01 kcal/mol|
|  sn= 2 | S(rot)=       0.01370460 Eh      8.60 kcal/mol|
|  sn= 3 | S(rot)=       0.01332177 Eh      8.36 kcal/mol|
|  sn= 4 | S(rot)=       0.01305014 Eh      8.19 kcal/mol|
|  sn= 5 | S(rot)=       0.01283946 Eh      8.06 kcal/mol|
|  sn= 6 | S(rot)=       0.01266731 Eh      7.95 kcal/mol|
|  sn= 7 | S(rot)=       0.01252177 Eh      7.86 kcal/mol|
|  sn= 8 | S(rot)=       0.01239569 Eh      7.78 kcal/mol|
|  sn= 9 | S(rot)=       0.01228448 Eh      7.71 kcal/mol|
|  sn=10 | S(rot)=       0.01218500 Eh      7.65 kcal/mol|
|  sn=11 | S(rot)=       0.01209501 Eh      7.59 kcal/mol|
|  sn=12 | S(rot)=       0.01201285 Eh      7.54 kcal/mol|
 --------------------------------------------------------

-------------------
GIBBS FREE ENERGY
-------------------

The Gibbs free energy is G = H - T*S

Total enthalpy                    ...  -2901.45981715 Eh
Total entropy correction          ...     -0.04831239 Eh    -30.32 kcal/mol
-----------------------------------------------------------------------
Final Gibbs free energy         ...  -2901.50812954 Eh

For completeness - the Gibbs free energy minus the electronic energy
G-E(el)                           ...     -0.02345187 Eh    -14.72 kcal/mol

                             ****ORCA TERMINATED NORMALLY****
TOTAL RUN TIME: 0 days 0 hours 8 minutes 16 seconds 408 msec
