                         Program Version 4.2.1 -  RELEASE  -
|  1> ! revPBE D4 gCP(DFT/TZ) def2-TZVP Opt Freq TightOpt TightSCF Grid4 FinalGrid5
|  2>
|  3> %pal
|  4>  nprocs 8
|  5> end
|  6>
|  7> *xyzfile 0 1 n-hexane.xyz
|  8>
|  9>                          ****END OF INPUT****
 Total Charge           Charge          ....    0
 Multiplicity           Mult            ....    1
 Number of Electrons    NEL             ....   50
Dispersion correction           -0.046369748
FINAL SINGLE POINT ENERGY      -237.113522944931
Dispersion correction            ...
Dispersion correction           -0.046113696
FINAL SINGLE POINT ENERGY      -237.114009805033
Dispersion correction            ...
Dispersion correction           -0.046085499
FINAL SINGLE POINT ENERGY      -237.114016388752
Dispersion correction            ...
Dispersion correction           -0.046078841
FINAL SINGLE POINT ENERGY      -237.114017982996
Dispersion correction            ...
Dispersion correction           -0.046080677
FINAL SINGLE POINT ENERGY      -237.114018252038
Dispersion correction            ...
                    ***********************HURRAY********************

CARTESIAN COORDINATES (ANGSTROEM)
---------------------------------
  C     -3.634595    0.697801    0.946169
  C     -2.116696    0.795089    0.743593
  H     -3.948716   -0.334761    1.166483
  H     -4.176408    1.028703    0.044727
  H     -3.964250    1.334955    1.783442
  H     -1.808558    0.123357   -0.077803
  H     -1.597773    0.429512    1.647992
  C     -1.641967    2.221360    0.432577
  H     -2.160406    2.588439   -0.472554
  C     -0.125282    2.330694    0.228275
  H     -1.950003    2.894757    1.253825
  H      0.182754    1.657297   -0.592974
  H      0.393157    1.963614    1.133406
  C      0.349447    3.756965   -0.082740
  H     -0.169477    4.122543   -0.987139
  C      1.867346    3.854253   -0.285317
  H      0.041310    4.428696    0.738657
  H      2.197000    3.217100   -1.122592
  H      2.409159    3.523350    0.616124
  H      2.181467    4.886815   -0.505630

 Multiplicity           Mult            ....    1
 Number of Electrons    NEL             ....   50
 Basis Dimension        Dim             ....  270

ORBITAL ENERGIES
----------------

  NO   OCC          E(Eh)            E(eV)
   0   2.0000      -9.886599      -269.0280
   1   2.0000      -9.886597      -269.0280
   2   2.0000      -9.884385      -268.9678
   3   2.0000      -9.884287      -268.9651
   4   2.0000      -9.879471      -268.8341
   5   2.0000      -9.879471      -268.8341
   6   2.0000      -0.728483       -19.8230
   7   2.0000      -0.692506       -18.8440
   8   2.0000      -0.637146       -17.3376
   9   2.0000      -0.571467       -15.5504
  10   2.0000      -0.518545       -14.1103
  11   2.0000      -0.512093       -13.9348
  12   2.0000      -0.424378       -11.5479
  13   2.0000      -0.393092       -10.6966
  14   2.0000      -0.385054       -10.4778
  15   2.0000      -0.371533       -10.1099
  16   2.0000      -0.349720        -9.5164
  17   2.0000      -0.335109        -9.1188
  18   2.0000      -0.331425        -9.0185
  19   2.0000      -0.307827        -8.3764
  20   2.0000      -0.296701        -8.0737
  21   2.0000      -0.282309        -7.6820
  22   2.0000      -0.281901        -7.6709
  23   2.0000      -0.275306        -7.4915
  24   2.0000      -0.268562        -7.3079
  25   0.0000       0.018410         0.5010
  26   0.0000       0.029306         0.7975
  27   0.0000       0.049751         1.3538
  28   0.0000       0.050721         1.3802
  29   0.0000       0.055860         1.5200

MULLIKEN ATOMIC CHARGES
-----------------------
   0 C :   -0.300746
   1 C :   -0.110483
   2 H :    0.104324
   3 H :    0.094056
   4 H :    0.094001
   5 H :    0.070007
   6 H :    0.069962
   7 C :   -0.150445
   8 H :    0.064658
   9 C :   -0.150444
  10 H :    0.064667
  11 H :    0.064667
  12 H :    0.064658
  13 C :   -0.110483
  14 H :    0.069962
  15 C :   -0.300747
  16 H :    0.070007
  17 H :    0.094001
  18 H :    0.094056
  19 H :    0.104324
Sum of atomic charges:   -0.0000000

LOEWDIN ATOMIC CHARGES
----------------------
   0 C :   -0.315048
   1 C :   -0.293332
   2 H :    0.116631
   3 H :    0.116748
   4 H :    0.116735
   5 H :    0.130936
   6 H :    0.130924
   7 C :   -0.268942
   8 H :    0.132669
   9 C :   -0.268942
  10 H :    0.132679
  11 H :    0.132679
  12 H :    0.132669
  13 C :   -0.293332
  14 H :    0.130924
  15 C :   -0.315048
  16 H :    0.130936
  17 H :    0.116735
  18 H :    0.116748
  19 H :    0.116631

  Mayer bond orders larger than 0.100000
B(  0-C ,  1-C ) :   1.0197 B(  0-C ,  2-H ) :   0.9685 B(  0-C ,  3-H ) :   0.9700
B(  0-C ,  4-H ) :   0.9698 B(  1-C ,  5-H ) :   0.9506 B(  1-C ,  6-H ) :   0.9506
B(  1-C ,  7-C ) :   1.0416 B(  7-C ,  8-H ) :   0.9465 B(  7-C ,  9-C ) :   1.0426
B(  7-C , 10-H ) :   0.9464 B(  9-C , 11-H ) :   0.9464 B(  9-C , 12-H ) :   0.9465
B(  9-C , 13-C ) :   1.0416 B( 13-C , 14-H ) :   0.9506 B( 13-C , 15-C ) :   1.0197
B( 13-C , 16-H ) :   0.9506 B( 15-C , 17-H ) :   0.9698 B( 15-C , 18-H ) :   0.9700
B( 15-C , 19-H ) :   0.9685

Dispersion correction           -0.046082284
FINAL SINGLE POINT ENERGY      -237.114018239299

DIPOLE MOMENT
-------------
                                X             Y             Z
Electronic contribution:      0.00000       0.00000       0.00000
Nuclear contribution   :     -0.00000      -0.00000      -0.00000
                        -----------------------------------------
Total Dipole Moment    :      0.00000      -0.00000       0.00000
                        -----------------------------------------
Magnitude (a.u.)       :      0.00000
Magnitude (Debye)      :      0.00000

Dispersion correction in the Hessian             ...

VIBRATIONAL FREQUENCIES
-----------------------

Scaling factor for frequencies =  1.000000000  (already applied!)

   0:         0.00 cm**-1
   1:         0.00 cm**-1
   2:         0.00 cm**-1
   3:         0.00 cm**-1
   4:         0.00 cm**-1
   5:         0.00 cm**-1
   6:        73.38 cm**-1
   7:        97.55 cm**-1
   8:       128.84 cm**-1
   9:       145.87 cm**-1
  10:       233.76 cm**-1
  11:       244.82 cm**-1
  12:       290.25 cm**-1
  13:       358.51 cm**-1
  14:       454.45 cm**-1
  15:       714.26 cm**-1
  16:       728.35 cm**-1
  17:       786.93 cm**-1
  18:       872.80 cm**-1
  19:       883.69 cm**-1
  20:       884.77 cm**-1
  21:       986.44 cm**-1
  22:       996.41 cm**-1
  23:      1028.96 cm**-1
  24:      1050.04 cm**-1
  25:      1052.88 cm**-1
  26:      1127.39 cm**-1
  27:      1166.72 cm**-1
  28:      1213.64 cm**-1
  29:      1233.36 cm**-1
  30:      1269.40 cm**-1
  31:      1291.26 cm**-1
  32:      1297.18 cm**-1
  33:      1298.03 cm**-1
  34:      1342.26 cm**-1
  35:      1349.27 cm**-1
  36:      1364.28 cm**-1
  37:      1367.71 cm**-1
  38:      1437.67 cm**-1
  39:      1438.23 cm**-1
  40:      1445.37 cm**-1
  41:      1452.94 cm**-1
  42:      1453.85 cm**-1
  43:      1454.14 cm**-1
  44:      1461.13 cm**-1
  45:      1466.30 cm**-1
  46:      2927.37 cm**-1
  47:      2930.50 cm**-1
  48:      2940.44 cm**-1
  49:      2945.24 cm**-1
  50:      2945.72 cm**-1
  51:      2954.06 cm**-1
  52:      2954.22 cm**-1
  53:      2955.90 cm**-1
  54:      2972.16 cm**-1
  55:      2986.85 cm**-1
  56:      3017.10 cm**-1
  57:      3017.89 cm**-1
  58:      3022.03 cm**-1
  59:      3022.03 cm**-1

IR SPECTRUM
-----------

 Mode    freq (cm**-1)   T**2         TX         TY         TZ
-------------------------------------------------------------------
   6:        73.38    0.015201  (  0.014672   0.021661   0.120483)
   7:        97.55    0.000683  (  0.006638   0.002663   0.025130)
   8:       128.84    0.003849  (  0.059482  -0.016566  -0.006061)
   9:       145.87    0.000000  (  0.000001  -0.000001  -0.000006)
  10:       233.76    0.000000  (  0.000001  -0.000000   0.000000)
  11:       244.82    0.000125  (  0.003548  -0.002554  -0.010309)
  12:       290.25    0.000000  (  0.000021  -0.000008  -0.000003)
  13:       358.51    0.000000  ( -0.000057   0.000004   0.000006)
  14:       454.45    0.077565  ( -0.272029   0.054590   0.024187)
  15:       714.26    4.722097  (  0.259753   0.375572   2.124517)
  16:       728.35    0.000000  ( -0.000002  -0.000002  -0.000002)
  17:       786.93    1.211316  (  0.132719   0.190342   1.075859)
  18:       872.80    3.168482  (  0.605130   1.634000  -0.363790)
  19:       883.69    0.000000  (  0.000019   0.000053  -0.000018)
  20:       884.77    0.000000  (  0.000082   0.000182  -0.000042)
  21:       986.44    0.368532  ( -0.071336  -0.105071  -0.593635)
  22:       996.41    0.000000  (  0.000066   0.000053  -0.000023)
  23:      1028.96    0.328969  (  0.410765   0.382841  -0.116937)
  24:      1050.04    0.000001  ( -0.000187  -0.000770   0.000156)
  25:      1052.88    3.764678  (  0.413070   1.857357  -0.379838)
  26:      1127.39    0.000000  (  0.000032   0.000142  -0.000029)
  27:      1166.72    0.000000  (  0.000002   0.000005   0.000004)
  28:      1213.64    0.003438  ( -0.004820  -0.008930  -0.057753)
  29:      1233.36    3.239929  ( -1.360885  -1.118673   0.369447)
  30:      1269.40    0.000000  ( -0.000001   0.000003   0.000004)
  31:      1291.26    0.000000  ( -0.000005  -0.000002   0.000004)
  32:      1297.18    0.866194  ( -0.111435  -0.160624  -0.909932)
  33:      1298.03    0.000000  (  0.000011   0.000058   0.000132)
  34:      1342.26    2.510798  (  1.526050   0.347080  -0.248003)
  35:      1349.27    0.000000  ( -0.000391   0.000026   0.000040)
  36:      1364.28    3.825731  ( -1.860647   0.591298   0.118706)
  37:      1367.71    0.000000  ( -0.000204  -0.000033   0.000030)
  38:      1437.67    0.000000  ( -0.000075  -0.000065   0.000023)
  39:      1438.23    0.300392  (  0.404768   0.352205  -0.111831)
  40:      1445.37    0.000000  ( -0.000043  -0.000013  -0.000011)
  41:      1452.94    1.632648  ( -0.662854  -1.079495   0.167219)
  42:      1453.85   14.141205  ( -0.441662  -0.621990  -3.682291)
  43:      1454.14    0.000000  (  0.000003  -0.000001   0.000072)
  44:      1461.13    0.000000  ( -0.000017   0.000027  -0.000013)
  45:      1466.30   10.415022  (  1.333090  -2.916823   0.360604)
  46:      2927.37    0.000000  ( -0.000243  -0.000099   0.000049)
  47:      2930.50    3.014264  ( -0.839635   1.510821  -0.163391)
  48:      2940.44    0.000000  (  0.000143   0.000339  -0.000082)
  49:      2945.24    0.000000  (  0.000121  -0.000182   0.000016)
  50:      2945.72   98.644820  ( -5.300877   8.357440  -0.835897)
  51:      2954.06  102.919645  ( 10.008803  -1.331506  -0.985193)
  52:      2954.22    0.000002  ( -0.001416   0.000019   0.000173)
  53:      2955.90    0.005754  (  0.009913  -0.019539  -0.072621)
  54:      2972.16    0.000000  ( -0.000000  -0.000010  -0.000020)
  55:      2986.85   64.328381  ( -0.956728  -1.390090  -7.840963)
  56:      3017.10    0.000000  ( -0.000037  -0.000037  -0.000260)
  57:      3017.89  130.729508  (  1.365305   2.009845  11.172555)
  58:      3022.03    0.074067  (  0.004427   0.267681  -0.048930)
  59:      3022.03   85.317322  ( -0.150055  -9.084897   1.661162)

--------------------------
THERMOCHEMISTRY AT 298.15K
--------------------------

Temperature         ... 298.15 K
Pressure            ... 1.00 atm
Total Mass          ... 86.18 AMU

Throughout the following assumptions are being made:
  (1) The electronic state is orbitally nondegenerate
  (2) There are no thermally accessible electronically excited states
  (3) Hindered rotations indicated by low frequency modes are not
      treated as such but are treated as vibrations and this may
      cause some error
  (4) All equations used are the standard statistical mechanics
      equations for an ideal gas
  (5) All vibrations are strictly harmonic

freq.      73.38  E(vib)   ...       0.49
freq.      97.55  E(vib)   ...       0.46
freq.     128.84  E(vib)   ...       0.43
freq.     145.87  E(vib)   ...       0.41
freq.     233.76  E(vib)   ...       0.32
freq.     244.82  E(vib)   ...       0.31
freq.     290.25  E(vib)   ...       0.27
freq.     358.51  E(vib)   ...       0.22
freq.     454.45  E(vib)   ...       0.16
freq.     714.26  E(vib)   ...       0.07
freq.     728.35  E(vib)   ...       0.06
freq.     786.93  E(vib)   ...       0.05
freq.     872.80  E(vib)   ...       0.04
freq.     883.69  E(vib)   ...       0.04
freq.     884.77  E(vib)   ...       0.04
freq.     986.44  E(vib)   ...       0.02
freq.     996.41  E(vib)   ...       0.02
freq.    1028.96  E(vib)   ...       0.02
freq.    1050.04  E(vib)   ...       0.02
freq.    1052.88  E(vib)   ...       0.02
freq.    1127.39  E(vib)   ...       0.01
freq.    1166.72  E(vib)   ...       0.01
freq.    1213.64  E(vib)   ...       0.01
freq.    1233.36  E(vib)   ...       0.01
freq.    1269.40  E(vib)   ...       0.01
freq.    1291.26  E(vib)   ...       0.01
freq.    1297.18  E(vib)   ...       0.01
freq.    1298.03  E(vib)   ...       0.01
freq.    1342.26  E(vib)   ...       0.01
freq.    1349.27  E(vib)   ...       0.01
freq.    1364.28  E(vib)   ...       0.01
freq.    1367.71  E(vib)   ...       0.01
freq.    1437.67  E(vib)   ...       0.00
freq.    1438.23  E(vib)   ...       0.00
freq.    1445.37  E(vib)   ...       0.00
freq.    1452.94  E(vib)   ...       0.00
freq.    1453.85  E(vib)   ...       0.00
freq.    1454.14  E(vib)   ...       0.00
freq.    1461.13  E(vib)   ...       0.00
freq.    1466.30  E(vib)   ...       0.00
freq.    2927.37  E(vib)   ...       0.00
freq.    2930.50  E(vib)   ...       0.00
freq.    2940.44  E(vib)   ...       0.00
freq.    2945.24  E(vib)   ...       0.00
freq.    2945.72  E(vib)   ...       0.00
freq.    2954.06  E(vib)   ...       0.00
freq.    2954.22  E(vib)   ...       0.00
freq.    2955.90  E(vib)   ...       0.00
freq.    2972.16  E(vib)   ...       0.00
freq.    2986.85  E(vib)   ...       0.00
freq.    3017.10  E(vib)   ...       0.00
freq.    3017.89  E(vib)   ...       0.00
freq.    3022.03  E(vib)   ...       0.00
freq.    3022.03  E(vib)   ...       0.00

------------
INNER ENERGY
------------

The inner energy is: U= E(el) + E(ZPE) + E(vib) + E(rot) + E(trans)
    E(el)   - is the total energy from the electronic structure calculation
              = E(kin-el) + E(nuc-el) + E(el-el) + E(nuc-nuc)
    E(ZPE)  - the the zero temperature vibrational energy from the frequency calculation
    E(vib)  - the the finite temperature correction to E(ZPE) due to population
              of excited vibrational states
    E(rot)  - is the rotational thermal energy
    E(trans)- is the translational thermal energy

Summary of contributions to the inner energy U:
Electronic energy                ...   -237.11401824 Eh
Zero point energy                ...      0.18347135 Eh     115.13 kcal/mol
Thermal vibrational correction   ...      0.00574373 Eh       3.60 kcal/mol
Thermal rotational correction    ...      0.00141627 Eh       0.89 kcal/mol
Thermal translational correction ...      0.00141627 Eh       0.89 kcal/mol
-----------------------------------------------------------------------
Total thermal energy                   -236.92197062 Eh

Summary of corrections to the electronic energy:
(perhaps to be used in another calculation)
Total thermal correction                  0.00857627 Eh       5.38 kcal/mol
Non-thermal (ZPE) correction              0.18347135 Eh     115.13 kcal/mol
-----------------------------------------------------------------------
Total correction                          0.19204762 Eh     120.51 kcal/mol

--------
ENTHALPY
--------

The enthalpy is H = U + kB*T
                kB is Boltzmann's constant
Total free energy                 ...   -236.92197062 Eh
Thermal Enthalpy correction       ...      0.00094421 Eh       0.59 kcal/mol
-----------------------------------------------------------------------
Total Enthalpy                    ...   -236.92102641 Eh

Error (ORCA_SYM): TSymmetryOperation::SetReflection called with NULL axis!
If your molecule is not C1 symmetric, check warnings below carefully ...
Error (ORCA_SYM): TSymmetryOperation::SetReflection called with NULL axis!
If your molecule is not C1 symmetric, check warnings below carefully ...
Error (ORCA_SYM): TSymmetryOperation::SetReflection called with NULL axis!
If your molecule is not C1 symmetric, check warnings below carefully ...
Error (ORCA_SYM): TSymmetryOperation::SetReflection called with NULL axis!
If your molecule is not C1 symmetric, check warnings below carefully ...

Note: Only C1 symmetry has been detected, increase convergence thresholds
      if your molecule has a higher symmetry. Symmetry factor of 1.0 is
      used for the rotational entropy correction.

Note: Rotational entropy computed according to Herzberg
Infrared and Raman Spectra, Chapter V,1, Van Nostrand Reinhold, 1945
Point Group:  C1, Symmetry Number:   1
Rotational constants in cm-1:     0.482203     0.037504     0.036214

Vibrational entropy computed according to the QRRHO of S. Grimme
Chem.Eur.J. 2012 18 9955

-------
ENTROPY
-------

The entropy contributions are T*S = T*(S(el)+S(vib)+S(rot)+S(trans))
     S(el)   - electronic entropy
     S(vib)  - vibrational entropy
     S(rot)  - rotational entropy
     S(trans)- translational entropy
The entropies will be listed as mutliplied by the temperature to get
units of energy

Electronic entropy                ...      0.00000000 Eh      0.00 kcal/mol
Vibrational entropy               ...      0.01010606 Eh      6.34 kcal/mol
Rotational entropy                ...      0.01297172 Eh      8.14 kcal/mol
Translational entropy             ...      0.01866056 Eh     11.71 kcal/mol
-----------------------------------------------------------------------
Final entropy term                ...      0.04173834 Eh     26.19 kcal/mol

In case the symmetry of your molecule has not been determined correctly
or in case you have a reason to use a different symmetry number we print
out the resulting rotational entropy values for sn=1,12 :
 --------------------------------------------------------
|  sn= 1 | S(rot)=       0.01297172 Eh      8.14 kcal/mol|

                             ****ORCA TERMINATED NORMALLY****
TOTAL RUN TIME: 0 days 0 hours 5 minutes 1 seconds 643 msec
