                         Program Version 4.2.1 -  RELEASE  -
|  1> ! B97-3c Opt Freq TightOpt TightSCF
|  2>
|  3> %pal
|  4>  nprocs 4
|  5> end
|  6>
|  7> *xyz 0 1
|  8> P       -2.7463087381      1.6924682724      0.0001034248
|  9> Cl      -3.5601078324      3.6000685343     -0.0008676309
| 10> Cl      -1.9325789326     -0.2152753921      0.0012810650
| 11> Cl      -4.6493620172      0.8807081415      0.1446906103
| 12> Cl      -1.9098744827      2.0481727195     -1.8640846097
| 13> Cl      -1.6793241653      2.1485375936      1.7191165634
| 14> *
| 15>
| 16>                          ****END OF INPUT****
 Total Charge           Charge          ....    0
 Multiplicity           Mult            ....    1
 Number of Electrons    NEL             ....  100
Dispersion correction           -0.034917716
FINAL SINGLE POINT ENERGY     -2642.076851621086
Dispersion correction            ... done
Dispersion correction           -0.034633613
FINAL SINGLE POINT ENERGY     -2642.078911426480
Dispersion correction            ... done
Dispersion correction           -0.034306497
FINAL SINGLE POINT ENERGY     -2642.080191557460
Dispersion correction            ... done
FINAL SINGLE POINT ENERGY     -2642.080310704068
FINAL SINGLE POINT ENERGY     -2642.080348210104
Dispersion correction           -0.034340262
FINAL SINGLE POINT ENERGY     -2642.080355843261
Dispersion correction            ... done
Dispersion correction           -0.034354376
FINAL SINGLE POINT ENERGY     -2642.080356956070
Dispersion correction            ... done
                    ***********************HURRAY********************

CARTESIAN COORDINATES (ANGSTROEM)
---------------------------------
  P     -2.746470    1.692587    0.000078
  Cl    -3.595613    3.684086   -0.000736
  Cl    -1.896728   -0.298898    0.001604
  Cl    -4.638531    0.885073    0.143569
  Cl    -1.914888    2.046007   -1.853841
  Cl    -1.685326    2.145825    1.709565

 Multiplicity           Mult            ....    1
 Number of Electrons    NEL             ....  100
 Basis Dimension        Dim             ....  132

ORBITAL ENERGIES
----------------

  NO   OCC          E(Eh)            E(eV)
   0   2.0000    -100.689045     -2739.8882
   1   2.0000    -100.688978     -2739.8864
   2   2.0000    -100.688972     -2739.8862
   3   2.0000    -100.647468     -2738.7568
   4   2.0000    -100.647441     -2738.7561
   5   2.0000     -76.530270     -2082.4945
   6   2.0000      -9.275824      -252.4080
   7   2.0000      -9.275750      -252.4060
   8   2.0000      -9.275745      -252.4059
   9   2.0000      -9.234942      -251.2956
  10   2.0000      -9.234905      -251.2945
  11   2.0000      -7.111623      -193.5171
  12   2.0000      -7.111561      -193.5154
  13   2.0000      -7.111538      -193.5148
  14   2.0000      -7.100457      -193.2133
  15   2.0000      -7.100388      -193.2114
  16   2.0000      -7.100374      -193.2110
  17   2.0000      -7.098210      -193.1521
  18   2.0000      -7.098142      -193.1503
  19   2.0000      -7.098130      -193.1499
  20   2.0000      -7.070008      -192.3847
  21   2.0000      -7.069983      -192.3840
  22   2.0000      -7.058744      -192.0782
  23   2.0000      -7.058741      -192.0781
  24   2.0000      -7.058725      -192.0777
  25   2.0000      -7.058717      -192.0775
  26   2.0000      -6.567445      -178.7093
  27   2.0000      -4.791286      -130.3775
  28   2.0000      -4.791278      -130.3773
  29   2.0000      -4.789538      -130.3300
  30   2.0000      -0.879545       -23.9336
  31   2.0000      -0.807520       -21.9737
  32   2.0000      -0.807459       -21.9721
  33   2.0000      -0.771421       -20.9914
  34   2.0000      -0.748216       -20.3600
  35   2.0000      -0.597223       -16.2513
  36   2.0000      -0.466647       -12.6981
  37   2.0000      -0.466602       -12.6969
  38   2.0000      -0.450727       -12.2649
  39   2.0000      -0.361173        -9.8280
  40   2.0000      -0.361141        -9.8271
  41   2.0000      -0.351612        -9.5679
  42   2.0000      -0.351574        -9.5668
  43   2.0000      -0.337588        -9.1862
  44   2.0000      -0.324018        -8.8170
  45   2.0000      -0.306938        -8.3522
  46   2.0000      -0.291856        -7.9418
  47   2.0000      -0.291854        -7.9418
  48   2.0000      -0.272826        -7.4240
  49   2.0000      -0.272785        -7.4229
  50   0.0000      -0.179282        -4.8785
  51   0.0000      -0.085433        -2.3248
  52   0.0000      -0.085359        -2.3227
  53   0.0000      -0.049187        -1.3384
  54   0.0000       0.150093         4.0842

MULLIKEN ATOMIC CHARGES
-----------------------
   0 P :    0.741295
   1 Cl:   -0.238524
   2 Cl:   -0.238655
   3 Cl:   -0.087969
   4 Cl:   -0.088038
   5 Cl:   -0.088110
Sum of atomic charges:   -0.0000000

LOEWDIN ATOMIC CHARGES
----------------------
   0 P :    0.544408
   1 Cl:   -0.186418
   2 Cl:   -0.186617
   3 Cl:   -0.057016
   4 Cl:   -0.057158
   5 Cl:   -0.057200

  Mayer bond orders larger than 0.100000
B(  0-P ,  1-Cl) :   0.8160 B(  0-P ,  2-Cl) :   0.8158 B(  0-P ,  3-Cl) :   0.9924
B(  0-P ,  4-Cl) :   0.9922 B(  0-P ,  5-Cl) :   0.9921

Dispersion correction           -0.034355694
FINAL SINGLE POINT ENERGY     -2642.080357023521

DIPOLE MOMENT
-------------
                                X             Y             Z
Electronic contribution:     -0.00074       0.00010      -0.00032
Nuclear contribution   :     -0.00006       0.00004       0.00001
                        -----------------------------------------
Total Dipole Moment    :     -0.00080       0.00014      -0.00031
                        -----------------------------------------
Magnitude (a.u.)       :      0.00087
Magnitude (Debye)      :      0.00221

Dispersion correction in the Hessian             ... done   (      0.3 sec)

VIBRATIONAL FREQUENCIES
-----------------------

Scaling factor for frequencies =  1.000000000  (already applied!)

   0:         0.00 cm**-1
   1:         0.00 cm**-1
   2:         0.00 cm**-1
   3:         0.00 cm**-1
   4:         0.00 cm**-1
   5:         0.00 cm**-1
   6:        82.77 cm**-1
   7:        84.22 cm**-1
   8:       245.75 cm**-1
   9:       246.23 cm**-1
  10:       254.94 cm**-1
  11:       255.60 cm**-1
  12:       259.93 cm**-1
  13:       283.84 cm**-1
  14:       357.26 cm**-1
  15:       423.03 cm**-1
  16:       527.90 cm**-1
  17:       528.31 cm**-1

IR SPECTRUM
-----------

 Mode    freq (cm**-1)   T**2         TX         TY         TZ
-------------------------------------------------------------------
   6:        82.77    0.672073  ( -0.388335  -0.152565   0.705686)
   7:        84.22    0.672673  ( -0.640527  -0.279343  -0.429378)
   8:       245.75    0.001344  ( -0.007215  -0.002794   0.035831)
   9:       246.23    0.004138  (  0.053197  -0.027397   0.023621)
  10:       254.94    2.206467  (  0.356797   0.140353  -1.435083)
  11:       255.60    2.158290  ( -1.292758  -0.585329  -0.380075)
  12:       259.93    0.000507  ( -0.004875   0.001236   0.021941)
  13:       283.84    3.565923  ( -0.740177   1.737161  -0.018240)
  14:       357.26    0.001053  (  0.017729  -0.027173  -0.000152)
  15:       423.03  333.826855  (  7.157416 -16.810617   0.037746)
  16:       527.90  187.083897  (  2.450185   1.089994  13.412397)
  17:       528.31  187.086869  ( 12.347187   5.242114  -2.674711)

--------------------------
THERMOCHEMISTRY AT 298.15K
--------------------------

Temperature         ... 298.15 K
Pressure            ... 1.00 atm
Total Mass          ... 208.24 AMU

Throughout the following assumptions are being made:
  (1) The electronic state is orbitally nondegenerate
  (2) There are no thermally accessible electronically excited states
  (3) Hindered rotations indicated by low frequency modes are not
      treated as such but are treated as vibrations and this may
      cause some error
  (4) All equations used are the standard statistical mechanics
      equations for an ideal gas
  (5) All vibrations are strictly harmonic

freq.      82.77  E(vib)   ...       0.48
freq.      84.22  E(vib)   ...       0.48
freq.     245.75  E(vib)   ...       0.31
freq.     246.23  E(vib)   ...       0.31
freq.     254.94  E(vib)   ...       0.30
freq.     255.60  E(vib)   ...       0.30
freq.     259.93  E(vib)   ...       0.30
freq.     283.84  E(vib)   ...       0.28
freq.     357.26  E(vib)   ...       0.22
freq.     423.03  E(vib)   ...       0.18
freq.     527.90  E(vib)   ...       0.13
freq.     528.31  E(vib)   ...       0.13

------------
INNER ENERGY
------------

The inner energy is: U= E(el) + E(ZPE) + E(vib) + E(rot) + E(trans)
    E(el)   - is the total energy from the electronic structure calculation
              = E(kin-el) + E(nuc-el) + E(el-el) + E(nuc-nuc)
    E(ZPE)  - the the zero temperature vibrational energy from the frequency calculation
    E(vib)  - the the finite temperature correction to E(ZPE) due to population
              of excited vibrational states
    E(rot)  - is the rotational thermal energy
    E(trans)- is the translational thermal energy

Summary of contributions to the inner energy U:
Electronic energy                ...  -2642.08035702 Eh
Zero point energy                ...      0.00808697 Eh       5.07 kcal/mol
Thermal vibrational correction   ...      0.00543883 Eh       3.41 kcal/mol
Thermal rotational correction    ...      0.00141627 Eh       0.89 kcal/mol
Thermal translational correction ...      0.00141627 Eh       0.89 kcal/mol
-----------------------------------------------------------------------
Total thermal energy                  -2642.06399867 Eh

Summary of corrections to the electronic energy:
(perhaps to be used in another calculation)
Total thermal correction                  0.00827138 Eh       5.19 kcal/mol
Non-thermal (ZPE) correction              0.00808697 Eh       5.07 kcal/mol
-----------------------------------------------------------------------
Total correction                          0.01635835 Eh      10.26 kcal/mol

--------
ENTHALPY
--------

The enthalpy is H = U + kB*T
                kB is Boltzmann's constant
Total free energy                 ...  -2642.06399867 Eh
Thermal Enthalpy correction       ...      0.00094421 Eh       0.59 kcal/mol
-----------------------------------------------------------------------
Total Enthalpy                    ...  -2642.06305447 Eh

Note: Only C1 symmetry has been detected, increase convergence thresholds
      if your molecule has a higher symmetry. Symmetry factor of 1.0 is
      used for the rotational entropy correction.

Note: Rotational entropy computed according to Herzberg
Infrared and Raman Spectra, Chapter V,1, Van Nostrand Reinhold, 1945
Point Group:  C1, Symmetry Number:   1
Rotational constants in cm-1:     0.037265     0.030185     0.030176

Vibrational entropy computed according to the QRRHO of S. Grimme
Chem.Eur.J. 2012 18 9955

-------
ENTROPY
-------

The entropy contributions are T*S = T*(S(el)+S(vib)+S(rot)+S(trans))
     S(el)   - electronic entropy
     S(vib)  - vibrational entropy
     S(rot)  - rotational entropy
     S(trans)- translational entropy
The entropies will be listed as mutliplied by the temperature to get
units of energy

Electronic entropy                ...      0.00000000 Eh      0.00 kcal/mol
Vibrational entropy               ...      0.00945003 Eh      5.93 kcal/mol
Rotational entropy                ...      0.01436902 Eh      9.02 kcal/mol
Translational entropy             ...      0.01991010 Eh     12.49 kcal/mol
-----------------------------------------------------------------------
Final entropy term                ...      0.04372915 Eh     27.44 kcal/mol

In case the symmetry of your molecule has not been determined correctly
or in case you have a reason to use a different symmetry number we print
out the resulting rotational entropy values for sn=1,12 :
 --------------------------------------------------------
|  sn= 1 | S(rot)=       0.01436902 Eh      9.02 kcal/mol|
|  sn= 2 | S(rot)=       0.01371456 Eh      8.61 kcal/mol|
|  sn= 3 | S(rot)=       0.01333173 Eh      8.37 kcal/mol|
|  sn= 4 | S(rot)=       0.01306010 Eh      8.20 kcal/mol|
|  sn= 5 | S(rot)=       0.01284942 Eh      8.06 kcal/mol|
|  sn= 6 | S(rot)=       0.01267727 Eh      7.96 kcal/mol|
|  sn= 7 | S(rot)=       0.01253173 Eh      7.86 kcal/mol|
|  sn= 8 | S(rot)=       0.01240565 Eh      7.78 kcal/mol|
|  sn= 9 | S(rot)=       0.01229444 Eh      7.71 kcal/mol|
|  sn=10 | S(rot)=       0.01219496 Eh      7.65 kcal/mol|
|  sn=11 | S(rot)=       0.01210497 Eh      7.60 kcal/mol|
|  sn=12 | S(rot)=       0.01202282 Eh      7.54 kcal/mol|
 --------------------------------------------------------

-------------------
GIBBS FREE ENERGY
-------------------

The Gibbs free energy is G = H - T*S

Total enthalpy                    ...  -2642.06305447 Eh
Total entropy correction          ...     -0.04372915 Eh    -27.44 kcal/mol
-----------------------------------------------------------------------
Final Gibbs free energy         ...  -2642.10678361 Eh

For completeness - the Gibbs free energy minus the electronic energy
G-E(el)                           ...     -0.02642659 Eh    -16.58 kcal/mol

                             ****ORCA TERMINATED NORMALLY****
TOTAL RUN TIME: 0 days 0 hours 0 minutes 48 seconds 251 msec
