                         Program Version 4.2.1 -  RELEASE  -
|  1> ! B97-3c Opt Freq TightOpt TightSCF
|  2>
|  3> %pal
|  4>  nprocs 2
|  5> end
|  6>
|  7> *xyz 0 1
|  8> S       -3.8094798109      2.0821855465     -0.4454976998
|  9> F       -2.2722952489      1.7322215433      0.2181612788
| 10> F       -5.3468260945      2.4320922180     -1.1087121001
| 11> F       -3.9490270193      3.4352530666      0.5915808204
| 12> F       -4.3777115879      0.5513057420      0.0637337464
| 13> *
| 14>
| 15>                          ****END OF INPUT****
 Total Charge           Charge          ....    0
 Multiplicity           Mult            ....    1
 Number of Electrons    NEL             ....   52
Dispersion correction           -0.006165477
FINAL SINGLE POINT ENERGY      -797.294455471186
Dispersion correction            ... done
Dispersion correction           -0.006293196
FINAL SINGLE POINT ENERGY      -797.309733106821
Dispersion correction            ... done
Dispersion correction           -0.006346063
FINAL SINGLE POINT ENERGY      -797.314088122557
Dispersion correction            ... done
FINAL SINGLE POINT ENERGY      -797.316305797573
FINAL SINGLE POINT ENERGY      -797.316893424772
FINAL SINGLE POINT ENERGY      -797.317173275066
FINAL SINGLE POINT ENERGY      -797.317181914564
Dispersion correction           -0.006364913
FINAL SINGLE POINT ENERGY      -797.317182298366
Dispersion correction            ... done
Dispersion correction           -0.006364805
FINAL SINGLE POINT ENERGY      -797.317182451565
Dispersion correction            ... done
                    ***********************HURRAY********************

CARTESIAN COORDINATES (ANGSTROEM)
---------------------------------
  S     -3.768161    2.092379   -0.535870
  F     -2.275136    1.736097    0.200175
  F     -5.331158    2.431647   -1.118671
  F     -4.011615    3.189174    0.606936
  F     -4.369270    0.783761    0.166696

 Multiplicity           Mult            ....    1
 Number of Electrons    NEL             ....   52
 Basis Dimension        Dim             ....   98

ORBITAL ENERGIES
----------------

  NO   OCC          E(Eh)            E(eV)
   0   2.0000     -88.332008     -2403.6361
   1   2.0000     -24.326073      -661.9461
   2   2.0000     -24.325997      -661.9440
   3   2.0000     -24.253452      -659.9700
   4   2.0000     -24.253434      -659.9695
   5   2.0000      -7.991846      -217.4692
   6   2.0000      -6.022776      -163.8881
   7   2.0000      -6.022572      -163.8825
   8   2.0000      -6.013655      -163.6399
   9   2.0000      -1.234979       -33.6055
  10   2.0000      -1.178175       -32.0598
  11   2.0000      -1.108222       -30.1563
  12   2.0000      -1.097371       -29.8610
  13   2.0000      -0.740594       -20.1526
  14   2.0000      -0.576296       -15.6818
  15   2.0000      -0.549465       -14.9517
  16   2.0000      -0.535607       -14.5746
  17   2.0000      -0.457839       -12.4584
  18   2.0000      -0.453514       -12.3408
  19   2.0000      -0.431485       -11.7413
  20   2.0000      -0.431211       -11.7339
  21   2.0000      -0.386493       -10.5170
  22   2.0000      -0.375723       -10.2240
  23   2.0000      -0.365446        -9.9443
  24   2.0000      -0.360091        -9.7986
  25   2.0000      -0.316059        -8.6004
  26   0.0000      -0.134365        -3.6563
  27   0.0000      -0.078483        -2.1356
  28   0.0000      -0.017549        -0.4775
  29   0.0000       0.194251         5.2858
  30   0.0000       0.210473         5.7273

MULLIKEN ATOMIC CHARGES
-----------------------
   0 S :    1.140716
   1 F :   -0.346991
   2 F :   -0.346959
   3 F :   -0.223473
   4 F :   -0.223293
Sum of atomic charges:   -0.0000000

LOEWDIN ATOMIC CHARGES
----------------------
   0 S :    1.408891
   1 F :   -0.410110
   2 F :   -0.410092
   3 F :   -0.294420
   4 F :   -0.294270

  Mayer bond orders larger than 0.100000
B(  0-S ,  1-F ) :   0.7937 B(  0-S ,  2-F ) :   0.7937 B(  0-S ,  3-F ) :   0.9355
B(  0-S ,  4-F ) :   0.9359

Dispersion correction           -0.006364721
FINAL SINGLE POINT ENERGY      -797.317182483970

DIPOLE MOMENT
-------------
                                X             Y             Z
Electronic contribution:     -0.10661      -0.02728       0.23237
Nuclear contribution   :      0.24676       0.06175      -0.53927
                        -----------------------------------------
Total Dipole Moment    :      0.14015       0.03446      -0.30690
                        -----------------------------------------
Magnitude (a.u.)       :      0.33914
Magnitude (Debye)      :      0.86203

Dispersion correction in the Hessian             ... done   (      0.4 sec)

VIBRATIONAL FREQUENCIES
-----------------------

Scaling factor for frequencies =  1.000000000  (already applied!)

   0:         0.00 cm**-1
   1:         0.00 cm**-1
   2:         0.00 cm**-1
   3:         0.00 cm**-1
   4:         0.00 cm**-1
   5:         0.00 cm**-1
   6:       196.01 cm**-1
   7:       298.47 cm**-1
   8:       407.32 cm**-1
   9:       459.61 cm**-1
  10:       466.16 cm**-1
  11:       510.75 cm**-1
  12:       700.99 cm**-1
  13:       775.10 cm**-1
  14:       806.31 cm**-1

IR SPECTRUM
-----------

 Mode    freq (cm**-1)   T**2         TX         TY         TZ
-------------------------------------------------------------------
   6:       196.01    1.109664  ( -0.424770  -0.131722   0.954926)
   7:       298.47    9.879814  (  0.450747   3.059633   0.561502)
   8:       407.32    0.003516  ( -0.055703  -0.002145  -0.020206)
   9:       459.61   17.556195  ( -1.674258  -0.406710   3.819377)
  10:       466.16    1.104963  ( -1.021733   0.164444  -0.184346)
  11:       510.75    3.348174  ( -0.777822  -0.191849   1.645102)
  12:       700.99  596.734862  ( 21.949116  -5.063927   9.451339)
  13:       775.10  179.631012  ( -2.063716 -13.018623  -2.426425)
  14:       806.31  107.591393  (  4.267139   1.081478  -9.392195)

--------------------------
THERMOCHEMISTRY AT 298.15K
--------------------------

Temperature         ... 298.15 K
Pressure            ... 1.00 atm
Total Mass          ... 108.05 AMU

Throughout the following assumptions are being made:
  (1) The electronic state is orbitally nondegenerate
  (2) There are no thermally accessible electronically excited states
  (3) Hindered rotations indicated by low frequency modes are not
      treated as such but are treated as vibrations and this may
      cause some error
  (4) All equations used are the standard statistical mechanics
      equations for an ideal gas
  (5) All vibrations are strictly harmonic

freq.     196.01  E(vib)   ...       0.36
freq.     298.47  E(vib)   ...       0.26
freq.     407.32  E(vib)   ...       0.19
freq.     459.61  E(vib)   ...       0.16
freq.     466.16  E(vib)   ...       0.16
freq.     510.75  E(vib)   ...       0.14
freq.     700.99  E(vib)   ...       0.07
freq.     775.10  E(vib)   ...       0.05
freq.     806.31  E(vib)   ...       0.05

------------
INNER ENERGY
------------

The inner energy is: U= E(el) + E(ZPE) + E(vib) + E(rot) + E(trans)
    E(el)   - is the total energy from the electronic structure calculation
              = E(kin-el) + E(nuc-el) + E(el-el) + E(nuc-nuc)
    E(ZPE)  - the the zero temperature vibrational energy from the frequency calculation
    E(vib)  - the the finite temperature correction to E(ZPE) due to population
              of excited vibrational states
    E(rot)  - is the rotational thermal energy
    E(trans)- is the translational thermal energy

Summary of contributions to the inner energy U:
Electronic energy                ...   -797.31718248 Eh
Zero point energy                ...      0.01052679 Eh       6.61 kcal/mol
Thermal vibrational correction   ...      0.00228867 Eh       1.44 kcal/mol
Thermal rotational correction    ...      0.00141627 Eh       0.89 kcal/mol
Thermal translational correction ...      0.00141627 Eh       0.89 kcal/mol
-----------------------------------------------------------------------
Total thermal energy                   -797.30153449 Eh

Summary of corrections to the electronic energy:
(perhaps to be used in another calculation)
Total thermal correction                  0.00512121 Eh       3.21 kcal/mol
Non-thermal (ZPE) correction              0.01052679 Eh       6.61 kcal/mol
-----------------------------------------------------------------------
Total correction                          0.01564799 Eh       9.82 kcal/mol

--------
ENTHALPY
--------

The enthalpy is H = U + kB*T
                kB is Boltzmann's constant
Total free energy                 ...   -797.30153449 Eh
Thermal Enthalpy correction       ...      0.00094421 Eh       0.59 kcal/mol
-----------------------------------------------------------------------
Total Enthalpy                    ...   -797.30059028 Eh

Note: Only C1 symmetry has been detected, increase convergence thresholds
      if your molecule has a higher symmetry. Symmetry factor of 1.0 is
      used for the rotational entropy correction.

Note: Rotational entropy computed according to Herzberg
Infrared and Raman Spectra, Chapter V,1, Van Nostrand Reinhold, 1945
Point Group:  C1, Symmetry Number:   1
Rotational constants in cm-1:     0.206771     0.126424     0.100434

Vibrational entropy computed according to the QRRHO of S. Grimme
Chem.Eur.J. 2012 18 9955

-------
ENTROPY
-------

The entropy contributions are T*S = T*(S(el)+S(vib)+S(rot)+S(trans))
     S(el)   - electronic entropy
     S(vib)  - vibrational entropy
     S(rot)  - rotational entropy
     S(trans)- translational entropy
The entropies will be listed as mutliplied by the temperature to get
units of energy

Electronic entropy                ...      0.00000000 Eh      0.00 kcal/mol
Vibrational entropy               ...      0.00352849 Eh      2.21 kcal/mol
Rotational entropy                ...      0.01231621 Eh      7.73 kcal/mol
Translational entropy             ...      0.01898092 Eh     11.91 kcal/mol
-----------------------------------------------------------------------
Final entropy term                ...      0.03482562 Eh     21.85 kcal/mol

In case the symmetry of your molecule has not been determined correctly
or in case you have a reason to use a different symmetry number we print
out the resulting rotational entropy values for sn=1,12 :
 --------------------------------------------------------
|  sn= 1 | S(rot)=       0.01231621 Eh      7.73 kcal/mol|
|  sn= 2 | S(rot)=       0.01166176 Eh      7.32 kcal/mol|
|  sn= 3 | S(rot)=       0.01127893 Eh      7.08 kcal/mol|
|  sn= 4 | S(rot)=       0.01100730 Eh      6.91 kcal/mol|
|  sn= 5 | S(rot)=       0.01079661 Eh      6.77 kcal/mol|
|  sn= 6 | S(rot)=       0.01062447 Eh      6.67 kcal/mol|
|  sn= 7 | S(rot)=       0.01047892 Eh      6.58 kcal/mol|
|  sn= 8 | S(rot)=       0.01035285 Eh      6.50 kcal/mol|
|  sn= 9 | S(rot)=       0.01024164 Eh      6.43 kcal/mol|
|  sn=10 | S(rot)=       0.01014216 Eh      6.36 kcal/mol|
|  sn=11 | S(rot)=       0.01005217 Eh      6.31 kcal/mol|
|  sn=12 | S(rot)=       0.00997001 Eh      6.26 kcal/mol|
 --------------------------------------------------------

-------------------
GIBBS FREE ENERGY
-------------------

The Gibbs free energy is G = H - T*S

Total enthalpy                    ...   -797.30059028 Eh
Total entropy correction          ...     -0.03482562 Eh    -21.85 kcal/mol
-----------------------------------------------------------------------
Final Gibbs free energy         ...   -797.33541590 Eh

For completeness - the Gibbs free energy minus the electronic energy
G-E(el)                           ...     -0.01823342 Eh    -11.44 kcal/mol

                             ****ORCA TERMINATED NORMALLY****
TOTAL RUN TIME: 0 days 0 hours 0 minutes 55 seconds 980 msec
