                         Program Version 4.2.1 -  RELEASE  -
|  1> ! B97-3c Opt Freq TightOpt TightSCF
|  2>
|  3> %pal
|  4>  nprocs 4
|  5> end
|  6>
|  7> *xyz 0 3
|  8> Ni      -5.6394453488      1.1817557412     -0.0317938756
|  9> C       -3.8300768901      1.6413163793     -0.0339913855
| 10> C       -5.1800492612     -0.6275308760     -0.0304378607
| 11> C       -7.4485535499      0.7223078772     -0.0291760209
| 12> C       -6.0995144693      2.9908310182     -0.0335604054
| 13> O       -2.7365798480      1.9188319145     -0.0352121661
| 14> O       -8.5420656338      0.4449203452     -0.0274870360
| 15> O       -6.3784743615      4.0839646519     -0.0347290057
| 16> O       -4.9028040736     -1.7210759855     -0.0297199858
| 17> *
| 18>
| 19>                          ****END OF INPUT****
 Total Charge           Charge          ....    0
 Multiplicity           Mult            ....    3
 Number of Electrons    NEL             ....   84
Dispersion correction           -0.023307440
FINAL SINGLE POINT ENERGY     -1961.898820471658
Dispersion correction            ... done
Dispersion correction           -0.023159116
FINAL SINGLE POINT ENERGY     -1961.902470696051
Dispersion correction            ... done
Dispersion correction           -0.023068719
FINAL SINGLE POINT ENERGY     -1961.902961229060
Dispersion correction            ... done
FINAL SINGLE POINT ENERGY     -1961.903297815386
FINAL SINGLE POINT ENERGY     -1961.903587449224
FINAL SINGLE POINT ENERGY     -1961.903674940330
Dispersion correction           -0.022770173
FINAL SINGLE POINT ENERGY     -1961.903681951963
Dispersion correction            ... done
Dispersion correction           -0.022774275
FINAL SINGLE POINT ENERGY     -1961.903681976274
Dispersion correction            ... done
                    ***********************HURRAY********************

CARTESIAN COORDINATES (ANGSTROEM)
---------------------------------
  Ni    -5.639415    1.181759   -0.031794
  C     -3.792896    1.651232   -0.034033
  C     -5.170057   -0.664644   -0.030415
  C     -7.485636    0.712398   -0.029122
  C     -6.109275    3.028000   -0.033597
  O     -2.680364    1.932917   -0.035281
  O     -8.598226    0.430903   -0.027404
  O     -6.392616    4.140117   -0.034785
  O     -4.889079   -1.777360   -0.029677

 Multiplicity           Mult            ....    3
 Number of Electrons    NEL             ....   84
 Basis Dimension        Dim             ....  205

ORBITAL ENERGIES
----------------
                 SPIN UP ORBITALS
  NO   OCC          E(Eh)            E(eV)
   0   1.0000    -298.283466     -8116.7057
   1   1.0000     -35.351524      -961.9639
   2   1.0000     -30.894664      -840.6866
   3   1.0000     -30.894661      -840.6865
   4   1.0000     -30.873891      -840.1213
   5   1.0000     -18.843576      -512.7598
   6   1.0000     -18.843570      -512.7596
   7   1.0000     -18.843568      -512.7596
   8   1.0000     -18.843565      -512.7595
   9   1.0000     -10.022347      -272.7219
  10   1.0000     -10.022336      -272.7216
  11   1.0000     -10.022335      -272.7216
  12   1.0000     -10.022323      -272.7213
  13   1.0000      -3.887662      -105.7887
  14   1.0000      -2.538127       -69.0660
  15   1.0000      -2.538120       -69.0658
  16   1.0000      -2.485601       -67.6367
  17   1.0000      -1.073070       -29.1997
  18   1.0000      -1.072551       -29.1856
  19   1.0000      -1.072550       -29.1856
  20   1.0000      -1.072219       -29.1766
  21   1.0000      -0.557602       -15.1731
  22   1.0000      -0.526822       -14.3355
  23   1.0000      -0.526814       -14.3353
  24   1.0000      -0.522273       -14.2118
  25   1.0000      -0.460712       -12.5366
  26   1.0000      -0.444221       -12.0879
  27   1.0000      -0.436458       -11.8766
  28   1.0000      -0.436442       -11.8762
  29   1.0000      -0.433200       -11.7880
  30   1.0000      -0.431108       -11.7310
  31   1.0000      -0.431104       -11.7309
  32   1.0000      -0.428834       -11.6692
  33   1.0000      -0.426387       -11.6026
  34   1.0000      -0.420442       -11.4408
  35   1.0000      -0.392077       -10.6690
  36   1.0000      -0.392073       -10.6689
  37   1.0000      -0.298724        -8.1287
  38   1.0000      -0.268549        -7.3076
  39   1.0000      -0.268543        -7.3074
  40   1.0000      -0.243521        -6.6265
  41   1.0000      -0.173123        -4.7109
  42   1.0000      -0.153190        -4.1685
  43   0.0000      -0.108658        -2.9567
  44   0.0000      -0.079210        -2.1554
  45   0.0000      -0.079173        -2.1544
  46   0.0000      -0.078148        -2.1265
  47   0.0000      -0.078143        -2.1264

                 SPIN DOWN ORBITALS
  NO   OCC          E(Eh)            E(eV)
   0   1.0000    -298.282828     -8116.6884
   1   1.0000     -35.331818      -961.4276
   2   1.0000     -30.876514      -840.1927
   3   1.0000     -30.876511      -840.1926
   4   1.0000     -30.866252      -839.9134
   5   1.0000     -18.842266      -512.7241
   6   1.0000     -18.842260      -512.7239
   7   1.0000     -18.842258      -512.7239
   8   1.0000     -18.842254      -512.7238
   9   1.0000     -10.020970      -272.6845
  10   1.0000     -10.020959      -272.6841
  11   1.0000     -10.020958      -272.6841
  12   1.0000     -10.020945      -272.6838
  13   1.0000      -3.849805      -104.7585
  14   1.0000      -2.491623       -67.8005
  15   1.0000      -2.491616       -67.8003
  16   1.0000      -2.467510       -67.1444
  17   1.0000      -1.068258       -29.0688
  18   1.0000      -1.067756       -29.0551
  19   1.0000      -1.067755       -29.0551
  20   1.0000      -1.067431       -29.0463
  21   1.0000      -0.546634       -14.8747
  22   1.0000      -0.519030       -14.1235
  23   1.0000      -0.519022       -14.1233
  24   1.0000      -0.513448       -13.9716
  25   1.0000      -0.453749       -12.3471
  26   1.0000      -0.439714       -11.9652
  27   1.0000      -0.431725       -11.7478
  28   1.0000      -0.431707       -11.7474
  29   1.0000      -0.422716       -11.5027
  30   1.0000      -0.420500       -11.4424
  31   1.0000      -0.420497       -11.4423
  32   1.0000      -0.417155       -11.3514
  33   1.0000      -0.416138       -11.3237
  34   1.0000      -0.399747       -10.8777
  35   1.0000      -0.381069       -10.3694
  36   1.0000      -0.381065       -10.3693
  37   1.0000      -0.279492        -7.6054
  38   1.0000      -0.245407        -6.6779
  39   1.0000      -0.245400        -6.6777
  40   1.0000      -0.218979        -5.9587
  41   0.0000      -0.140586        -3.8255
  42   0.0000      -0.120358        -3.2751
  43   0.0000      -0.097864        -2.6630
  44   0.0000      -0.070044        -1.9060
  45   0.0000      -0.070012        -1.9051

MULLIKEN ATOMIC CHARGES AND SPIN POPULATIONS
--------------------------------------------
   0 Ni:   -0.264201    0.790017
   1 C :    0.278562    0.273565
   2 C :    0.278622    0.273519
   3 C :    0.278695    0.273464
   4 C :    0.278635    0.273510
   5 O :   -0.212561    0.028967
   6 O :   -0.212596    0.028996
   7 O :   -0.212580    0.028982
   8 O :   -0.212577    0.028980
Sum of atomic charges         :   -0.0000000

LOEWDIN ATOMIC CHARGES AND SPIN POPULATIONS
-------------------------------------------
   0 Ni:   -0.091644    0.855460
   1 C :    0.260680    0.204644
   2 C :    0.260702    0.204580
   3 C :    0.260729    0.204502
   4 C :    0.260707    0.204566
   5 O :   -0.237789    0.081551
   6 O :   -0.237798    0.081573
   7 O :   -0.237794    0.081563
   8 O :   -0.237793    0.081562

  Mayer bond orders larger than 0.100000
B(  0-Ni,  1-C ) :   0.9185 B(  0-Ni,  2-C ) :   0.9188 B(  0-Ni,  3-C ) :   0.9191
B(  0-Ni,  4-C ) :   0.9188 B(  1-C ,  5-O ) :   2.1863 B(  2-C ,  8-O ) :   2.1862
B(  3-C ,  6-O ) :   2.1862 B(  4-C ,  7-O ) :   2.1862

Dispersion correction           -0.022775401
FINAL SINGLE POINT ENERGY     -1961.903682143252

DIPOLE MOMENT
-------------
                                X             Y             Z
Electronic contribution:      0.00120       0.00021      -0.00001
Nuclear contribution   :     -0.00067      -0.00012       0.00001
                        -----------------------------------------
Total Dipole Moment    :      0.00053       0.00009      -0.00000
                        -----------------------------------------
Magnitude (a.u.)       :      0.00053
Magnitude (Debye)      :      0.00136

Dispersion correction in the Hessian             ... done   (      0.7 sec)

VIBRATIONAL FREQUENCIES
-----------------------

Scaling factor for frequencies =  1.000000000  (already applied!)

   0:         0.00 cm**-1
   1:         0.00 cm**-1
   2:         0.00 cm**-1
   3:         0.00 cm**-1
   4:         0.00 cm**-1
   5:         0.00 cm**-1
   6:      -163.38 cm**-1 ***imaginary mode***
   7:       -63.55 cm**-1 ***imaginary mode***
   8:       -44.67 cm**-1 ***imaginary mode***
   9:       -44.50 cm**-1 ***imaginary mode***
  10:       -26.18 cm**-1 ***imaginary mode***
  11:        37.47 cm**-1
  12:       105.05 cm**-1
  13:       105.07 cm**-1
  14:       245.73 cm**-1
  15:       254.05 cm**-1
  16:       254.13 cm**-1
  17:       254.97 cm**-1
  18:       352.96 cm**-1
  19:       413.73 cm**-1
  20:       413.82 cm**-1
  21:       461.01 cm**-1
  22:       485.91 cm**-1
  23:      1985.93 cm**-1
  24:      2002.87 cm**-1
  25:      2002.87 cm**-1
  26:      2099.70 cm**-1

IR SPECTRUM
-----------

 Mode    freq (cm**-1)   T**2         TX         TY         TZ
-------------------------------------------------------------------
  11:        37.47    0.000039  ( -0.004732   0.004045  -0.000221)
  12:       105.05    0.000001  (  0.000832   0.000132  -0.000311)
  13:       105.07    0.000001  ( -0.000093   0.000808  -0.000432)
  14:       245.73    1.388195  ( -0.005190   0.001977   1.178204)
  15:       254.05   12.603847  (  1.762027   3.082059  -0.004337)
  16:       254.13   12.635841  (  3.083705  -1.768220   0.000967)
  17:       254.97    0.032081  ( -0.168063  -0.061710   0.005281)
  18:       352.96    0.000139  (  0.011578   0.002149  -0.000033)
  19:       413.73    1.217923  (  0.520676   0.973046  -0.001560)
  20:       413.82    1.217031  (  0.972607  -0.520641  -0.000532)
  21:       461.01    0.000009  ( -0.001042   0.002886   0.000014)
  22:       485.91    0.000000  ( -0.000378   0.000175   0.000019)
  23:      1985.93    0.000234  ( -0.005646  -0.011202  -0.008738)
  24:      2002.87  1725.307659  ( 39.125491 -13.946433  -0.025103)
  25:      2002.87  1724.616850  ( 13.940401  39.118776  -0.058664)
  26:      2099.70    0.000112  (  0.010110   0.003072   0.000047)

--------------------------
THERMOCHEMISTRY AT 298.15K
--------------------------

Temperature         ... 298.15 K
Pressure            ... 1.00 atm
Total Mass          ... 170.74 AMU

Throughout the following assumptions are being made:
  (1) The electronic state is orbitally nondegenerate
      but the spin degeneracy is treated
  (2) There are no thermally accessible electronically excited states
  (3) Hindered rotations indicated by low frequency modes are not
      treated as such but are treated as vibrations and this may
      cause some error
  (4) All equations used are the standard statistical mechanics
      equations for an ideal gas
  (5) All vibrations are strictly harmonic

freq.      37.47  E(vib)   ...       0.54
freq.     105.05  E(vib)   ...       0.45
freq.     105.07  E(vib)   ...       0.45
freq.     245.73  E(vib)   ...       0.31
freq.     254.05  E(vib)   ...       0.30
freq.     254.13  E(vib)   ...       0.30
freq.     254.97  E(vib)   ...       0.30
freq.     352.96  E(vib)   ...       0.22
freq.     413.73  E(vib)   ...       0.19
freq.     413.82  E(vib)   ...       0.19
freq.     461.01  E(vib)   ...       0.16
freq.     485.91  E(vib)   ...       0.15
freq.    1985.93  E(vib)   ...       0.00
freq.    2002.87  E(vib)   ...       0.00
freq.    2002.87  E(vib)   ...       0.00
freq.    2099.70  E(vib)   ...       0.00

------------
INNER ENERGY
------------

The inner energy is: U= E(el) + E(ZPE) + E(vib) + E(rot) + E(trans)
    E(el)   - is the total energy from the electronic structure calculation
              = E(kin-el) + E(nuc-el) + E(el-el) + E(nuc-nuc)
    E(ZPE)  - the the zero temperature vibrational energy from the frequency calculation
    E(vib)  - the the finite temperature correction to E(ZPE) due to population
              of excited vibrational states
    E(rot)  - is the rotational thermal energy
    E(trans)- is the translational thermal energy

Summary of contributions to the inner energy U:
Electronic energy                ...  -1961.90368214 Eh
Zero point energy                ...      0.02614257 Eh      16.40 kcal/mol
Thermal vibrational correction   ...      0.00568707 Eh       3.57 kcal/mol
Thermal rotational correction    ...      0.00141627 Eh       0.89 kcal/mol
Thermal translational correction ...      0.00141627 Eh       0.89 kcal/mol
-----------------------------------------------------------------------
Total thermal energy                  -1961.86901996 Eh

Summary of corrections to the electronic energy:
(perhaps to be used in another calculation)
Total thermal correction                  0.00851961 Eh       5.35 kcal/mol
Non-thermal (ZPE) correction              0.02614257 Eh      16.40 kcal/mol
-----------------------------------------------------------------------
Total correction                          0.03466218 Eh      21.75 kcal/mol

--------
ENTHALPY
--------

The enthalpy is H = U + kB*T
                kB is Boltzmann's constant
Total free energy                 ...  -1961.86901996 Eh
Thermal Enthalpy correction       ...      0.00094421 Eh       0.59 kcal/mol
-----------------------------------------------------------------------
Total Enthalpy                    ...  -1961.86807576 Eh

Note: Only C1 symmetry has been detected, increase convergence thresholds
      if your molecule has a higher symmetry. Symmetry factor of 1.0 is
      used for the rotational entropy correction.

Note: Rotational entropy computed according to Herzberg
Infrared and Raman Spectra, Chapter V,1, Van Nostrand Reinhold, 1945
Point Group:  C1, Symmetry Number:   1
Rotational constants in cm-1:     0.043752     0.043733     0.021871

Vibrational entropy computed according to the QRRHO of S. Grimme
Chem.Eur.J. 2012 18 9955

-------
ENTROPY
-------

The entropy contributions are T*S = T*(S(el)+S(vib)+S(rot)+S(trans))
     S(el)   - electronic entropy
     S(vib)  - vibrational entropy
     S(rot)  - rotational entropy
     S(trans)- translational entropy
The entropies will be listed as mutliplied by the temperature to get
units of energy

Electronic entropy                ...      0.00103729 Eh      0.65 kcal/mol
Vibrational entropy               ...      0.01017404 Eh      6.38 kcal/mol
Rotational entropy                ...      0.01427017 Eh      8.95 kcal/mol
Translational entropy             ...      0.01962891 Eh     12.32 kcal/mol
-----------------------------------------------------------------------
Final entropy term                ...      0.04511041 Eh     28.31 kcal/mol

In case the symmetry of your molecule has not been determined correctly
or in case you have a reason to use a different symmetry number we print
out the resulting rotational entropy values for sn=1,12 :
 --------------------------------------------------------
|  sn= 1 | S(rot)=       0.01427017 Eh      8.95 kcal/mol|
|  sn= 2 | S(rot)=       0.01361572 Eh      8.54 kcal/mol|
|  sn= 3 | S(rot)=       0.01323289 Eh      8.30 kcal/mol|
|  sn= 4 | S(rot)=       0.01296126 Eh      8.13 kcal/mol|
|  sn= 5 | S(rot)=       0.01275057 Eh      8.00 kcal/mol|
|  sn= 6 | S(rot)=       0.01257843 Eh      7.89 kcal/mol|
|  sn= 7 | S(rot)=       0.01243288 Eh      7.80 kcal/mol|
|  sn= 8 | S(rot)=       0.01230680 Eh      7.72 kcal/mol|
|  sn= 9 | S(rot)=       0.01219560 Eh      7.65 kcal/mol|
|  sn=10 | S(rot)=       0.01209612 Eh      7.59 kcal/mol|
|  sn=11 | S(rot)=       0.01200613 Eh      7.53 kcal/mol|
|  sn=12 | S(rot)=       0.01192397 Eh      7.48 kcal/mol|
 --------------------------------------------------------

-------------------
GIBBS FREE ENERGY
-------------------

The Gibbs free energy is G = H - T*S

Total enthalpy                    ...  -1961.86807576 Eh
Total entropy correction          ...     -0.04511041 Eh    -28.31 kcal/mol
-----------------------------------------------------------------------
Final Gibbs free energy         ...  -1961.91318616 Eh

For completeness - the Gibbs free energy minus the electronic energy
G-E(el)                           ...     -0.00950402 Eh     -5.96 kcal/mol

                             ****ORCA TERMINATED NORMALLY****
TOTAL RUN TIME: 0 days 0 hours 4 minutes 52 seconds 94 msec
