                         Program Version 4.2.1 -  RELEASE  -
|  1> ! B97-3c Opt Freq TightOpt TightSCF
|  2>
|  3> %pal
|  4>  nprocs 4
|  5> end
|  6>
|  7> *xyz 0 1
|  8> Os      -2.1679073757     -2.0289671092     -0.3387606568
|  9> Cl      -3.0372703544     -3.6496832239     -1.8441474049
| 10> Cl      -0.4234205046     -1.5362632903     -1.8758703232
| 11> C       -3.3569624236     -0.5715815919     -1.2201718397
| 12> C       -3.6927131536     -2.4597060269      1.0044725773
| 13> C       -0.9792078014     -3.4858590523      0.5440718257
| 14> C       -1.4079301505     -0.6124075089      0.9767737411
| 15> O       -4.0027916911      0.2199912982     -1.6984317134
| 16> O       -4.5209926172     -2.6939433380      1.7334922408
| 17> O       -0.3337924404     -4.2768548577      1.0237546066
| 18> O       -0.9948472319      0.1569845224      1.6907636215
| 19> *
| 20>
| 21>                          ****END OF INPUT****
 Total Charge           Charge          ....    0
 Multiplicity           Mult            ....    1
 Number of Electrons    NEL             ....  106
Dispersion correction           -0.040602681
FINAL SINGLE POINT ENERGY     -1464.521750324431
Dispersion correction            ... done
Dispersion correction           -0.041980742
FINAL SINGLE POINT ENERGY     -1464.542954645913
Dispersion correction            ... done
Dispersion correction           -0.042914566
FINAL SINGLE POINT ENERGY     -1464.550459802273
Dispersion correction            ... done
FINAL SINGLE POINT ENERGY     -1464.550853188390
FINAL SINGLE POINT ENERGY     -1464.551021280822
FINAL SINGLE POINT ENERGY     -1464.551144321680
FINAL SINGLE POINT ENERGY     -1464.551219364883
FINAL SINGLE POINT ENERGY     -1464.551245948180
FINAL SINGLE POINT ENERGY     -1464.551263465025
FINAL SINGLE POINT ENERGY     -1464.551279171928
FINAL SINGLE POINT ENERGY     -1464.551288167911
FINAL SINGLE POINT ENERGY     -1464.551292440295
FINAL SINGLE POINT ENERGY     -1464.551293679479
Dispersion correction           -0.042805819
FINAL SINGLE POINT ENERGY     -1464.551294050629
Dispersion correction            ... done
Dispersion correction           -0.042805774
FINAL SINGLE POINT ENERGY     -1464.551294143384
Dispersion correction            ... done
                    ***********************HURRAY********************

CARTESIAN COORDINATES (ANGSTROEM)
---------------------------------
  Os    -2.220230   -1.961622   -0.157377
  Cl    -3.102373   -3.622321   -1.713199
  Cl    -0.435870   -1.471148   -1.748036
  C     -3.286136   -0.656880   -1.189361
  C     -3.653816   -2.419390    1.017546
  C     -1.038316   -3.411801    0.478349
  C     -1.456102   -0.642709    0.992176
  O     -3.873002    0.060871   -1.844530
  O     -4.517570   -2.702890    1.714394
  O     -0.344868   -4.261285    0.772145
  O     -0.989552    0.150885    1.673840

 Multiplicity           Mult            ....    1
 Number of Electrons    NEL             ....  106
 Basis Dimension        Dim             ....  252

ORBITAL ENERGIES
----------------

  NO   OCC          E(Eh)            E(eV)
   0   2.0000    -100.604379     -2737.5843
   1   2.0000    -100.604198     -2737.5794
   2   2.0000     -18.886458      -513.9266
   3   2.0000     -18.886451      -513.9265
   4   2.0000     -18.867913      -513.4220
   5   2.0000     -18.867895      -513.4215
   6   2.0000     -10.075913      -274.1795
   7   2.0000     -10.075899      -274.1791
   8   2.0000     -10.065070      -273.8845
   9   2.0000     -10.065056      -273.8841
  10   2.0000      -9.190322      -250.0814
  11   2.0000      -9.190191      -250.0778
  12   2.0000      -7.023759      -191.1262
  13   2.0000      -7.023660      -191.1235
  14   2.0000      -7.015211      -190.8936
  15   2.0000      -7.015135      -190.8915
  16   2.0000      -7.015034      -190.8888
  17   2.0000      -7.014996      -190.8877
  18   2.0000      -3.425474       -93.2119
  19   2.0000      -1.899123       -51.6778
  20   2.0000      -1.892289       -51.4918
  21   2.0000      -1.890866       -51.4531
  22   2.0000      -1.118633       -30.4396
  23   2.0000      -1.118478       -30.4353
  24   2.0000      -1.099227       -29.9115
  25   2.0000      -1.098937       -29.9036
  26   2.0000      -0.713926       -19.4269
  27   2.0000      -0.703685       -19.1482
  28   2.0000      -0.603156       -16.4127
  29   2.0000      -0.572575       -15.5806
  30   2.0000      -0.565994       -15.4015
  31   2.0000      -0.560197       -15.2437
  32   2.0000      -0.509015       -13.8510
  33   2.0000      -0.484513       -13.1843
  34   2.0000      -0.482339       -13.1251
  35   2.0000      -0.481550       -13.1036
  36   2.0000      -0.480877       -13.0853
  37   2.0000      -0.469048       -12.7634
  38   2.0000      -0.468976       -12.7615
  39   2.0000      -0.467534       -12.7223
  40   2.0000      -0.460857       -12.5405
  41   2.0000      -0.454499       -12.3675
  42   2.0000      -0.450501       -12.2588
  43   2.0000      -0.435908       -11.8617
  44   2.0000      -0.334670        -9.1068
  45   2.0000      -0.333521        -9.0756
  46   2.0000      -0.327704        -8.9173
  47   2.0000      -0.322748        -8.7824
  48   2.0000      -0.317440        -8.6380
  49   2.0000      -0.251451        -6.8423
  50   2.0000      -0.245595        -6.6830
  51   2.0000      -0.245215        -6.6726
  52   2.0000      -0.242518        -6.5993
  53   0.0000      -0.134575        -3.6620
  54   0.0000      -0.129829        -3.5328
  55   0.0000      -0.100073        -2.7231
  56   0.0000      -0.095264        -2.5923
  57   0.0000      -0.087525        -2.3817

MULLIKEN ATOMIC CHARGES
-----------------------
   0 Os:    0.032659
   1 Cl:   -0.265003
   2 Cl:   -0.264856
   3 C :    0.433546
   4 C :    0.204919
   5 C :    0.432963
   6 C :    0.204368
   7 O :   -0.178648
   8 O :   -0.210886
   9 O :   -0.178433
  10 O :   -0.210629
Sum of atomic charges:   -0.0000000

LOEWDIN ATOMIC CHARGES
----------------------
   0 Os:   -0.446765
   1 Cl:   -0.035453
   2 Cl:   -0.035229
   3 C :    0.331047
   4 C :    0.293435
   5 C :    0.330988
   6 C :    0.293493
   7 O :   -0.157658
   8 O :   -0.208078
   9 O :   -0.157625
  10 O :   -0.208155

  Mayer bond orders larger than 0.100000
B(  0-Os,  1-Cl) :   0.7120 B(  0-Os,  2-Cl) :   0.7127 B(  0-Os,  3-C ) :   0.8125
B(  0-Os,  4-C ) :   1.0267 B(  0-Os,  5-C ) :   0.8121 B(  0-Os,  6-C ) :   1.0272
B(  0-Os,  8-O ) :   0.1289 B(  0-Os, 10-O ) :   0.1290 B(  1-Cl,  6-C ) :   0.1647
B(  2-Cl,  4-C ) :   0.1646 B(  3-C ,  5-C ) :   0.1334 B(  3-C ,  7-O ) :   2.3127
B(  4-C ,  8-O ) :   2.1857 B(  5-C ,  9-O ) :   2.3129 B(  6-C , 10-O ) :   2.1850

Dispersion correction           -0.042805840
FINAL SINGLE POINT ENERGY     -1464.551294151573

DIPOLE MOMENT
-------------
                                X             Y             Z
Electronic contribution:     -4.05214       5.27110      14.13060
Nuclear contribution   :      3.59536      -4.67870     -12.53742
                        -----------------------------------------
Total Dipole Moment    :     -0.45678       0.59240       1.59318
                        -----------------------------------------
Magnitude (a.u.)       :      1.76006
Magnitude (Debye)      :      4.47371

Dispersion correction in the Hessian             ... done   (      0.5 sec)

VIBRATIONAL FREQUENCIES
-----------------------

Scaling factor for frequencies =  1.000000000  (already applied!)

   0:         0.00 cm**-1
   1:         0.00 cm**-1
   2:         0.00 cm**-1
   3:         0.00 cm**-1
   4:         0.00 cm**-1
   5:         0.00 cm**-1
   6:        68.78 cm**-1
   7:        76.60 cm**-1
   8:        82.81 cm**-1
   9:        84.23 cm**-1
  10:        88.92 cm**-1
  11:        94.02 cm**-1
  12:        94.98 cm**-1
  13:       107.51 cm**-1
  14:       137.26 cm**-1
  15:       296.67 cm**-1
  16:       319.36 cm**-1
  17:       347.83 cm**-1
  18:       405.57 cm**-1
  19:       408.47 cm**-1
  20:       456.88 cm**-1
  21:       462.37 cm**-1
  22:       480.75 cm**-1
  23:       481.86 cm**-1
  24:       553.59 cm**-1
  25:       555.56 cm**-1
  26:       579.24 cm**-1
  27:       580.05 cm**-1
  28:       603.14 cm**-1
  29:      2060.47 cm**-1
  30:      2095.17 cm**-1
  31:      2117.13 cm**-1
  32:      2188.45 cm**-1

IR SPECTRUM
-----------

 Mode    freq (cm**-1)   T**2         TX         TY         TZ
-------------------------------------------------------------------
   6:        68.78    0.719393  (  0.623928   0.567246   0.091318)
   7:        76.60    0.405499  ( -0.236688   0.140086   0.574329)
   8:        82.81    0.005430  (  0.013708  -0.053691   0.048573)
   9:        84.23    0.111509  ( -0.173041   0.233006  -0.165150)
  10:        88.92    0.001729  ( -0.009085   0.004652  -0.040312)
  11:        94.02    0.188029  ( -0.127272   0.203342   0.361224)
  12:        94.98    0.047606  (  0.168121   0.031747  -0.135401)
  13:       107.51    1.037880  ( -0.572745   0.714131  -0.447057)
  14:       137.26    0.142663  (  0.127643  -0.116064  -0.336005)
  15:       296.67   18.592921  ( -3.370837  -2.688593   0.042994)
  16:       319.36   12.167639  (  0.904547  -1.165731  -3.160776)
  17:       347.83   41.176068  (  3.664465  -4.511190   2.719730)
  18:       405.57    0.053173  (  0.123102  -0.170024   0.095449)
  19:       408.47    0.561335  (  0.427213  -0.527559   0.317027)
  20:       456.88    3.133333  ( -0.455944   0.591080   1.605015)
  21:       462.37   10.178245  (  2.473315   2.014946  -0.030852)
  22:       480.75    3.020133  (  1.328046   1.119706   0.051813)
  23:       481.86    0.261963  (  0.326432   0.024444  -0.393456)
  24:       553.59    0.005865  (  0.037531  -0.006898   0.066399)
  25:       555.56    6.162919  ( -0.510048   1.020135   2.205016)
  26:       579.24   44.155037  (  3.816545  -4.553206   2.976127)
  27:       580.05   63.382147  ( -6.107724  -5.106551  -0.031485)
  28:       603.14   72.382486  ( -2.436406   2.801472   7.654944)
  29:      2060.47  760.494587  ( 21.411486  17.378646  -0.159749)
  30:      2095.17  554.584340  (  6.214119  -7.805188 -21.331857)
  31:      2117.13  983.817703  ( 17.960223 -22.004912  13.305335)
  32:      2188.45   30.711018  (  1.431883  -1.871228  -5.015898)

--------------------------
THERMOCHEMISTRY AT 298.15K
--------------------------

Temperature         ... 298.15 K
Pressure            ... 1.00 atm
Total Mass          ... 373.15 AMU

Throughout the following assumptions are being made:
  (1) The electronic state is orbitally nondegenerate
  (2) There are no thermally accessible electronically excited states
  (3) Hindered rotations indicated by low frequency modes are not
      treated as such but are treated as vibrations and this may
      cause some error
  (4) All equations used are the standard statistical mechanics
      equations for an ideal gas
  (5) All vibrations are strictly harmonic

freq.      68.78  E(vib)   ...       0.50
freq.      76.60  E(vib)   ...       0.49
freq.      82.81  E(vib)   ...       0.48
freq.      84.23  E(vib)   ...       0.48
freq.      88.92  E(vib)   ...       0.47
freq.      94.02  E(vib)   ...       0.47
freq.      94.98  E(vib)   ...       0.47
freq.     107.51  E(vib)   ...       0.45
freq.     137.26  E(vib)   ...       0.42
freq.     296.67  E(vib)   ...       0.27
freq.     319.36  E(vib)   ...       0.25
freq.     347.83  E(vib)   ...       0.23
freq.     405.57  E(vib)   ...       0.19
freq.     408.47  E(vib)   ...       0.19
freq.     456.88  E(vib)   ...       0.16
freq.     462.37  E(vib)   ...       0.16
freq.     480.75  E(vib)   ...       0.15
freq.     481.86  E(vib)   ...       0.15
freq.     553.59  E(vib)   ...       0.12
freq.     555.56  E(vib)   ...       0.12
freq.     579.24  E(vib)   ...       0.11
freq.     580.05  E(vib)   ...       0.11
freq.     603.14  E(vib)   ...       0.10
freq.    2060.47  E(vib)   ...       0.00
freq.    2095.17  E(vib)   ...       0.00
freq.    2117.13  E(vib)   ...       0.00
freq.    2188.45  E(vib)   ...       0.00

------------
INNER ENERGY
------------

The inner energy is: U= E(el) + E(ZPE) + E(vib) + E(rot) + E(trans)
    E(el)   - is the total energy from the electronic structure calculation
              = E(kin-el) + E(nuc-el) + E(el-el) + E(nuc-nuc)
    E(ZPE)  - the the zero temperature vibrational energy from the frequency calculation
    E(vib)  - the the finite temperature correction to E(ZPE) due to population
              of excited vibrational states
    E(rot)  - is the rotational thermal energy
    E(trans)- is the translational thermal energy

Summary of contributions to the inner energy U:
Electronic energy                ...  -1464.55129415 Eh
Zero point energy                ...      0.03605807 Eh      22.63 kcal/mol
Thermal vibrational correction   ...      0.01039691 Eh       6.52 kcal/mol
Thermal rotational correction    ...      0.00141627 Eh       0.89 kcal/mol
Thermal translational correction ...      0.00141627 Eh       0.89 kcal/mol
-----------------------------------------------------------------------
Total thermal energy                  -1464.50200663 Eh

Summary of corrections to the electronic energy:
(perhaps to be used in another calculation)
Total thermal correction                  0.01322945 Eh       8.30 kcal/mol
Non-thermal (ZPE) correction              0.03605807 Eh      22.63 kcal/mol
-----------------------------------------------------------------------
Total correction                          0.04928752 Eh      30.93 kcal/mol

--------
ENTHALPY
--------

The enthalpy is H = U + kB*T
                kB is Boltzmann's constant
Total free energy                 ...  -1464.50200663 Eh
Thermal Enthalpy correction       ...      0.00094421 Eh       0.59 kcal/mol
-----------------------------------------------------------------------
Total Enthalpy                    ...  -1464.50106242 Eh

Note: Only C1 symmetry has been detected, increase convergence thresholds
      if your molecule has a higher symmetry. Symmetry factor of 1.0 is
      used for the rotational entropy correction.

Note: Rotational entropy computed according to Herzberg
Infrared and Raman Spectra, Chapter V,1, Van Nostrand Reinhold, 1945
Point Group:  C1, Symmetry Number:   1
Rotational constants in cm-1:     0.021469     0.020822     0.020628

Vibrational entropy computed according to the QRRHO of S. Grimme
Chem.Eur.J. 2012 18 9955

-------
ENTROPY
-------

The entropy contributions are T*S = T*(S(el)+S(vib)+S(rot)+S(trans))
     S(el)   - electronic entropy
     S(vib)  - vibrational entropy
     S(rot)  - rotational entropy
     S(trans)- translational entropy
The entropies will be listed as mutliplied by the temperature to get
units of energy

Electronic entropy                ...      0.00000000 Eh      0.00 kcal/mol
Vibrational entropy               ...      0.01904579 Eh     11.95 kcal/mol
Rotational entropy                ...      0.01498422 Eh      9.40 kcal/mol
Translational entropy             ...      0.02073619 Eh     13.01 kcal/mol
-----------------------------------------------------------------------
Final entropy term                ...      0.05476619 Eh     34.37 kcal/mol

In case the symmetry of your molecule has not been determined correctly
or in case you have a reason to use a different symmetry number we print
out the resulting rotational entropy values for sn=1,12 :
 --------------------------------------------------------
|  sn= 1 | S(rot)=       0.01498422 Eh      9.40 kcal/mol|
|  sn= 2 | S(rot)=       0.01432976 Eh      8.99 kcal/mol|
|  sn= 3 | S(rot)=       0.01394693 Eh      8.75 kcal/mol|
|  sn= 4 | S(rot)=       0.01367530 Eh      8.58 kcal/mol|
|  sn= 5 | S(rot)=       0.01346462 Eh      8.45 kcal/mol|
|  sn= 6 | S(rot)=       0.01329247 Eh      8.34 kcal/mol|
|  sn= 7 | S(rot)=       0.01314693 Eh      8.25 kcal/mol|
|  sn= 8 | S(rot)=       0.01302085 Eh      8.17 kcal/mol|
|  sn= 9 | S(rot)=       0.01290964 Eh      8.10 kcal/mol|
|  sn=10 | S(rot)=       0.01281016 Eh      8.04 kcal/mol|
|  sn=11 | S(rot)=       0.01272017 Eh      7.98 kcal/mol|
|  sn=12 | S(rot)=       0.01263802 Eh      7.93 kcal/mol|
 --------------------------------------------------------

-------------------
GIBBS FREE ENERGY
-------------------

The Gibbs free energy is G = H - T*S

Total enthalpy                    ...  -1464.50106242 Eh
Total entropy correction          ...     -0.05476619 Eh    -34.37 kcal/mol
-----------------------------------------------------------------------
Final Gibbs free energy         ...  -1464.55582862 Eh

For completeness - the Gibbs free energy minus the electronic energy
G-E(el)                           ...     -0.00453447 Eh     -2.85 kcal/mol

                             ****ORCA TERMINATED NORMALLY****
TOTAL RUN TIME: 0 days 0 hours 5 minutes 33 seconds 447 msec
