                         Program Version 4.2.1 -  RELEASE  -
|  1> ! revPBE D4 gCP(DFT/TZ) def2-TZVP Opt Freq TightOpt TightSCF Grid4 FinalGrid5
|  2>
|  3> %pal
|  4>  nprocs 8
|  5> end
|  6>
|  7> *xyzfile 0 1 init.xyz
|  8>
|  9>                          ****END OF INPUT****
 Total Charge           Charge          ....    0
 Multiplicity           Mult            ....    1
 Number of Electrons    NEL             ....   74
Dispersion correction           -0.024021533
FINAL SINGLE POINT ENERGY     -1878.626787425970
Dispersion correction            ...
Dispersion correction           -0.023795002
FINAL SINGLE POINT ENERGY     -1878.627470680634
Dispersion correction            ...
Dispersion correction           -0.023733701
FINAL SINGLE POINT ENERGY     -1878.627507459499
Dispersion correction            ...
Dispersion correction           -0.023730581
FINAL SINGLE POINT ENERGY     -1878.627507761019
Dispersion correction            ...
                    ***********************HURRAY********************

CARTESIAN COORDINATES (ANGSTROEM)
---------------------------------
  C     -0.000000   -0.000001    0.000000
  Cl     1.032042   -1.032042   -1.032042
  Cl    -1.032042    1.032042   -1.032042
  Cl     1.032042    1.032042    1.032042
  Cl    -1.032042   -1.032042    1.032042

 Multiplicity           Mult            ....    1
 Number of Electrons    NEL             ....   74
 Basis Dimension        Dim             ....  179

ORBITAL ENERGIES
----------------

  NO   OCC          E(Eh)            E(eV)
   0   2.0000    -100.708444     -2740.4161
   1   2.0000    -100.708443     -2740.4160
   2   2.0000    -100.708442     -2740.4160
   3   2.0000    -100.708442     -2740.4160
   4   2.0000     -10.133142      -275.7368
   5   2.0000      -9.209777      -250.6108
   6   2.0000      -9.209774      -250.6107
   7   2.0000      -9.209773      -250.6107
   8   2.0000      -9.209773      -250.6107
   9   2.0000      -7.028675      -191.2600
  10   2.0000      -7.028670      -191.2598
  11   2.0000      -7.028670      -191.2598
  12   2.0000      -7.028670      -191.2598
  13   2.0000      -7.016680      -190.9336
  14   2.0000      -7.016680      -190.9336
  15   2.0000      -7.016676      -190.9335
  16   2.0000      -7.016676      -190.9335
  17   2.0000      -7.016676      -190.9335
  18   2.0000      -7.016676      -190.9335
  19   2.0000      -7.016676      -190.9334
  20   2.0000      -7.016675      -190.9334
  21   2.0000      -0.895355       -24.3638
  22   2.0000      -0.779257       -21.2047
  23   2.0000      -0.779257       -21.2047
  24   2.0000      -0.779257       -21.2047
  25   2.0000      -0.575813       -15.6687
  26   2.0000      -0.456669       -12.4266
  27   2.0000      -0.456669       -12.4266
  28   2.0000      -0.456669       -12.4266
  29   2.0000      -0.333161        -9.0658
  30   2.0000      -0.333161        -9.0658
  31   2.0000      -0.311719        -8.4823
  32   2.0000      -0.311719        -8.4823
  33   2.0000      -0.311719        -8.4823
  34   2.0000      -0.278885        -7.5888
  35   2.0000      -0.278884        -7.5888
  36   2.0000      -0.278884        -7.5888
  37   0.0000      -0.100516        -2.7352
  38   0.0000      -0.047334        -1.2880
  39   0.0000      -0.047333        -1.2880
  40   0.0000      -0.047333        -1.2880
  41   0.0000       0.107278         2.9192

MULLIKEN ATOMIC CHARGES
-----------------------
   0 C :    0.132175
   1 Cl:   -0.033043
   2 Cl:   -0.033044
   3 Cl:   -0.033044
   4 Cl:   -0.033043
Sum of atomic charges:   -0.0000000

LOEWDIN ATOMIC CHARGES
----------------------
   0 C :   -1.367981
   1 Cl:    0.341997
   2 Cl:    0.341994
   3 Cl:    0.341994
   4 Cl:    0.341997

  Mayer bond orders larger than 0.100000
B(  0-C ,  1-Cl) :   1.1354 B(  0-C ,  2-Cl) :   1.1354 B(  0-C ,  3-Cl) :   1.1354
B(  0-C ,  4-Cl) :   1.1354

Dispersion correction           -0.023730544
FINAL SINGLE POINT ENERGY     -1878.627507770032

DIPOLE MOMENT
-------------
                                X             Y             Z
Electronic contribution:      0.00000      -0.00000      -0.00000
Nuclear contribution   :     -0.00000      -0.00000       0.00000
                        -----------------------------------------
Total Dipole Moment    :      0.00000      -0.00000      -0.00000
                        -----------------------------------------
Magnitude (a.u.)       :      0.00000
Magnitude (Debye)      :      0.00001

Dispersion correction in the Hessian             ...

VIBRATIONAL FREQUENCIES
-----------------------

Scaling factor for frequencies =  1.000000000  (already applied!)

   0:         0.00 cm**-1
   1:         0.00 cm**-1
   2:         0.00 cm**-1
   3:         0.00 cm**-1
   4:         0.00 cm**-1
   5:         0.00 cm**-1
   6:       206.60 cm**-1
   7:       206.60 cm**-1
   8:       301.68 cm**-1
   9:       301.68 cm**-1
  10:       301.68 cm**-1
  11:       440.58 cm**-1
  12:       710.05 cm**-1
  13:       710.05 cm**-1
  14:       710.05 cm**-1

IR SPECTRUM
-----------

 Mode    freq (cm**-1)   T**2         TX         TY         TZ
-------------------------------------------------------------------
   6:       206.60    0.000000  ( -0.000021   0.000002  -0.000021)
   7:       206.60    0.000000  (  0.000002  -0.000005   0.000002)
   8:       301.68    0.656648  ( -0.514184  -0.576331   0.245164)
   9:       301.68    0.656675  (  0.362043  -0.014644   0.724835)
  10:       301.68    0.656627  (  0.511067  -0.569455  -0.266756)
  11:       440.58    0.000000  ( -0.000004  -0.000052   0.000009)
  12:       710.05  185.585654  ( -9.619209   0.130331  -9.645698)
  13:       710.05  185.585881  ( -0.192499  13.616442   0.375952)
  14:       710.05  185.586047  (  9.644669   0.401757  -9.612752)

--------------------------
THERMOCHEMISTRY AT 298.15K
--------------------------

Temperature         ... 298.15 K
Pressure            ... 1.00 atm
Total Mass          ... 153.82 AMU

Throughout the following assumptions are being made:
  (1) The electronic state is orbitally nondegenerate
  (2) There are no thermally accessible electronically excited states
  (3) Hindered rotations indicated by low frequency modes are not
      treated as such but are treated as vibrations and this may
      cause some error
  (4) All equations used are the standard statistical mechanics
      equations for an ideal gas
  (5) All vibrations are strictly harmonic

freq.     206.60  E(vib)   ...       0.35
freq.     206.60  E(vib)   ...       0.35
freq.     301.68  E(vib)   ...       0.26
freq.     301.68  E(vib)   ...       0.26
freq.     301.68  E(vib)   ...       0.26
freq.     440.58  E(vib)   ...       0.17
freq.     710.05  E(vib)   ...       0.07
freq.     710.05  E(vib)   ...       0.07
freq.     710.05  E(vib)   ...       0.07

------------
INNER ENERGY
------------

The inner energy is: U= E(el) + E(ZPE) + E(vib) + E(rot) + E(trans)
    E(el)   - is the total energy from the electronic structure calculation
              = E(kin-el) + E(nuc-el) + E(el-el) + E(nuc-nuc)
    E(ZPE)  - the the zero temperature vibrational energy from the frequency calculation
    E(vib)  - the the finite temperature correction to E(ZPE) due to population
              of excited vibrational states
    E(rot)  - is the rotational thermal energy
    E(trans)- is the translational thermal energy

Summary of contributions to the inner energy U:
Electronic energy                ...  -1878.62750777 Eh
Zero point energy                ...      0.00885970 Eh       5.56 kcal/mol
Thermal vibrational correction   ...      0.00295323 Eh       1.85 kcal/mol
Thermal rotational correction    ...      0.00141627 Eh       0.89 kcal/mol
Thermal translational correction ...      0.00141627 Eh       0.89 kcal/mol
-----------------------------------------------------------------------
Total thermal energy                  -1878.61286230 Eh

Summary of corrections to the electronic energy:
(perhaps to be used in another calculation)
Total thermal correction                  0.00578577 Eh       3.63 kcal/mol
Non-thermal (ZPE) correction              0.00885970 Eh       5.56 kcal/mol
-----------------------------------------------------------------------
Total correction                          0.01464547 Eh       9.19 kcal/mol

--------
ENTHALPY
--------

The enthalpy is H = U + kB*T
                kB is Boltzmann's constant
Total free energy                 ...  -1878.61286230 Eh
Thermal Enthalpy correction       ...      0.00094421 Eh       0.59 kcal/mol
-----------------------------------------------------------------------
Total Enthalpy                    ...  -1878.61191809 Eh

Note: Rotational entropy computed according to Herzberg
Infrared and Raman Spectra, Chapter V,1, Van Nostrand Reinhold, 1945
Point Group:  C2v, Symmetry Number:   2
Rotational constants in cm-1:     0.055803     0.055803     0.055803

Vibrational entropy computed according to the QRRHO of S. Grimme
Chem.Eur.J. 2012 18 9955

-------
ENTROPY
-------

The entropy contributions are T*S = T*(S(el)+S(vib)+S(rot)+S(trans))
     S(el)   - electronic entropy
     S(vib)  - vibrational entropy
     S(rot)  - rotational entropy
     S(trans)- translational entropy
The entropies will be listed as mutliplied by the temperature to get
units of energy

Electronic entropy                ...      0.00000000 Eh      0.00 kcal/mol
Vibrational entropy               ...      0.00479841 Eh      3.01 kcal/mol
Rotational entropy                ...      0.01294361 Eh      8.12 kcal/mol
Translational entropy             ...      0.01948113 Eh     12.22 kcal/mol
-----------------------------------------------------------------------
Final entropy term                ...      0.03722315 Eh     23.36 kcal/mol

In case the symmetry of your molecule has not been determined correctly
or in case you have a reason to use a different symmetry number we print
out the resulting rotational entropy values for sn=1,12 :
 --------------------------------------------------------
|  sn= 1 | S(rot)=       0.01359806 Eh      8.53 kcal/mol|
|  sn= 2 | S(rot)=       0.01294361 Eh      8.12 kcal/mol|
|  sn= 3 | S(rot)=       0.01256077 Eh      7.88 kcal/mol|
|  sn= 4 | S(rot)=       0.01228915 Eh      7.71 kcal/mol|
|  sn= 5 | S(rot)=       0.01207846 Eh      7.58 kcal/mol|
|  sn= 6 | S(rot)=       0.01190632 Eh      7.47 kcal/mol|
|  sn= 7 | S(rot)=       0.01176077 Eh      7.38 kcal/mol|
|  sn= 8 | S(rot)=       0.01163469 Eh      7.30 kcal/mol|
|  sn= 9 | S(rot)=       0.01152348 Eh      7.23 kcal/mol|
|  sn=10 | S(rot)=       0.01142401 Eh      7.17 kcal/mol|
|  sn=11 | S(rot)=       0.01133402 Eh      7.11 kcal/mol|
|  sn=12 | S(rot)=       0.01125186 Eh      7.06 kcal/mol|
 --------------------------------------------------------

-------------------
GIBBS FREE ENERGY
-------------------

The Gibbs free energy is G = H - T*S

Total enthalpy                    ...  -1878.61191809 Eh
Total entropy correction          ...     -0.03722315 Eh    -23.36 kcal/mol
-----------------------------------------------------------------------
Final Gibbs free energy         ...  -1878.64914124 Eh

For completeness - the Gibbs free energy minus the electronic energy
G-E(el)                           ...     -0.02163347 Eh    -13.58 kcal/mol

                             ****ORCA TERMINATED NORMALLY****
TOTAL RUN TIME: 0 days 0 hours 0 minutes 49 seconds 160 msec
