                         Program Version 4.2.1 -  RELEASE  -
|  1> ! B97-3c Opt Freq TightOpt TightSCF
|  2>
|  3> %pal
|  4>  nprocs 4
|  5> end
|  6>
|  7> *xyz 0 1
|  8> Pt      -4.4722106190     -1.1218171684     -2.0901759368
|  9> Cl      -6.7680840338     -0.8464003903     -2.5711360289
| 10> Cl      -2.1773518455     -1.4034449074     -1.6076923672
| 11> N       -4.8069102670     -0.5968508378     -0.1351134564
| 12> H       -5.7976174535     -0.2952297652     -0.0033734397
| 13> H       -4.1701489650      0.1900015758      0.1218468133
| 14> N       -4.1373597817     -1.6464199377     -4.0453287085
| 15> H       -4.4967709935     -0.8896787480     -4.6690076512
| 16> H       -4.6425293895     -2.5370218881     -4.2511542039
| 17> H       -3.1163625951     -1.7788499698     -4.2173502124
| 18> H       -4.6097635285     -1.4192236594      0.4776654200
| 19> *
| 20>
| 21>                          ****END OF INPUT****
 Total Charge           Charge          ....    0
 Multiplicity           Mult            ....    1
 Number of Electrons    NEL             ....   72
Dispersion correction           -0.029261152
FINAL SINGLE POINT ENERGY     -1153.143242396723
Dispersion correction            ... done
Dispersion correction           -0.029819225
FINAL SINGLE POINT ENERGY     -1153.147177220691
Dispersion correction            ... done
Dispersion correction           -0.029893877
FINAL SINGLE POINT ENERGY     -1153.114245870871
Dispersion correction            ... done
FINAL SINGLE POINT ENERGY     -1153.146959778898
FINAL SINGLE POINT ENERGY     -1153.144731561342
FINAL SINGLE POINT ENERGY     -1153.147462688368
FINAL SINGLE POINT ENERGY     -1153.145070359794
FINAL SINGLE POINT ENERGY     -1153.148002907168
FINAL SINGLE POINT ENERGY     -1153.146632104627
FINAL SINGLE POINT ENERGY     -1153.148034013194
FINAL SINGLE POINT ENERGY     -1153.148043928175
FINAL SINGLE POINT ENERGY     -1153.148046822677
Dispersion correction           -0.029539844
FINAL SINGLE POINT ENERGY     -1153.148048977479
Dispersion correction            ... done
Dispersion correction           -0.029537234
FINAL SINGLE POINT ENERGY     -1153.148049208589
Dispersion correction            ... done
                    ***********************HURRAY********************

CARTESIAN COORDINATES (ANGSTROEM)
---------------------------------
  Pt    -4.472668   -1.122764   -2.089989
  Cl    -6.747170   -0.830282   -2.537592
  Cl    -2.194828   -1.395075   -1.646420
  N     -4.806815   -0.599937   -0.142338
  H     -5.771057   -0.302130   -0.033816
  H     -4.186207    0.151312    0.134426
  N     -4.138023   -1.646009   -4.037590
  H     -4.492257   -0.931965   -4.662713
  H     -4.611586   -2.514644   -4.255682
  H     -3.141152   -1.764284   -4.187790
  H     -4.633346   -1.389157    0.468684

 Multiplicity           Mult            ....    1
 Number of Electrons    NEL             ....   72
 Basis Dimension        Dim             ....  136

ORBITAL ENERGIES
----------------

  NO   OCC          E(Eh)            E(eV)
   0   2.0000    -100.578508     -2736.8803
   1   2.0000    -100.578464     -2736.8792
   2   2.0000     -14.067680      -382.8010
   3   2.0000     -14.067664      -382.8006
   4   2.0000      -9.164392      -249.3758
   5   2.0000      -9.164346      -249.3745
   6   2.0000      -6.997104      -190.4009
   7   2.0000      -6.997061      -190.3997
   8   2.0000      -6.989797      -190.2020
   9   2.0000      -6.989749      -190.2007
  10   2.0000      -6.989431      -190.1921
  11   2.0000      -6.989389      -190.1909
  12   2.0000      -3.782508      -102.9273
  13   2.0000      -2.082233       -56.6604
  14   2.0000      -2.073835       -56.4319
  15   2.0000      -2.032954       -55.3195
  16   2.0000      -0.873853       -23.7788
  17   2.0000      -0.866933       -23.5905
  18   2.0000      -0.686253       -18.6739
  19   2.0000      -0.676139       -18.3987
  20   2.0000      -0.507202       -13.8017
  21   2.0000      -0.503518       -13.7014
  22   2.0000      -0.499474       -13.5914
  23   2.0000      -0.499208       -13.5841
  24   2.0000      -0.436231       -11.8705
  25   2.0000      -0.348609        -9.4861
  26   2.0000      -0.346083        -9.4174
  27   2.0000      -0.280248        -7.6259
  28   2.0000      -0.273959        -7.4548
  29   2.0000      -0.264934        -7.2092
  30   2.0000      -0.239394        -6.5142
  31   2.0000      -0.237498        -6.4626
  32   2.0000      -0.219742        -5.9795
  33   2.0000      -0.202333        -5.5058
  34   2.0000      -0.196927        -5.3586
  35   2.0000      -0.175780        -4.7832
  36   0.0000      -0.078624        -2.1395
  37   0.0000      -0.017535        -0.4772
  38   0.0000      -0.000319        -0.0087
  39   0.0000       0.024053         0.6545
  40   0.0000       0.061994         1.6869

MULLIKEN ATOMIC CHARGES
-----------------------
   0 Pt:    0.289356
   1 Cl:   -0.460672
   2 Cl:   -0.460639
   3 N :   -0.819295
   4 H :    0.375684
   5 H :    0.379811
   6 N :   -0.817624
   7 H :    0.379388
   8 H :    0.379287
   9 H :    0.375238
  10 H :    0.379466
Sum of atomic charges:   -0.0000000

LOEWDIN ATOMIC CHARGES
----------------------
   0 Pt:   -0.509590
   1 Cl:   -0.123016
   2 Cl:   -0.123037
   3 N :   -0.513687
   4 H :    0.293869
   5 H :    0.298683
   6 N :   -0.513508
   7 H :    0.298629
   8 H :    0.298885
   9 H :    0.293793
  10 H :    0.298980

  Mayer bond orders larger than 0.100000
B(  0-Pt,  1-Cl) :   0.7139 B(  0-Pt,  2-Cl) :   0.7140 B(  0-Pt,  3-N ) :   0.4797
B(  0-Pt,  6-N ) :   0.4797 B(  1-Cl,  2-Cl) :   0.1238 B(  3-N ,  4-H ) :   0.8174
B(  3-N ,  5-H ) :   0.8319 B(  3-N , 10-H ) :   0.8346 B(  6-N ,  7-H ) :   0.8324
B(  6-N ,  8-H ) :   0.8345 B(  6-N ,  9-H ) :   0.8175

Dispersion correction           -0.029537334
FINAL SINGLE POINT ENERGY     -1153.148049290245

DIPOLE MOMENT
-------------
                                X             Y             Z
Electronic contribution:     -0.06085      -0.32482       0.06596
Nuclear contribution   :      0.05758       0.30040      -0.06008
                        -----------------------------------------
Total Dipole Moment    :     -0.00327      -0.02442       0.00588
                        -----------------------------------------
Magnitude (a.u.)       :      0.02533
Magnitude (Debye)      :      0.06439

Dispersion correction in the Hessian             ... done   (      0.9 sec)

VIBRATIONAL FREQUENCIES
-----------------------

Scaling factor for frequencies =  1.000000000  (already applied!)

   0:         0.00 cm**-1
   1:         0.00 cm**-1
   2:         0.00 cm**-1
   3:         0.00 cm**-1
   4:         0.00 cm**-1
   5:         0.00 cm**-1
   6:       -24.50 cm**-1 ***imaginary mode***
   7:        37.16 cm**-1
   8:       105.45 cm**-1
   9:       136.13 cm**-1
  10:       153.33 cm**-1
  11:       184.89 cm**-1
  12:       223.60 cm**-1
  13:       314.38 cm**-1
  14:       327.85 cm**-1
  15:       483.13 cm**-1
  16:       526.63 cm**-1
  17:       741.44 cm**-1
  18:       786.88 cm**-1
  19:       817.83 cm**-1
  20:       847.04 cm**-1
  21:      1297.37 cm**-1
  22:      1299.89 cm**-1
  23:      1679.18 cm**-1
  24:      1682.42 cm**-1
  25:      1685.57 cm**-1
  26:      1686.80 cm**-1
  27:      3402.40 cm**-1
  28:      3404.58 cm**-1
  29:      3518.64 cm**-1
  30:      3519.34 cm**-1
  31:      3532.37 cm**-1
  32:      3533.83 cm**-1

IR SPECTRUM
-----------

 Mode    freq (cm**-1)   T**2         TX         TY         TZ
-------------------------------------------------------------------
   7:        37.16    0.756962  (  0.050495   0.847889  -0.188406)
   8:       105.45    4.710910  ( -0.396940  -2.077595   0.486773)
   9:       136.13   10.281386  (  0.967333  -0.912818  -2.917605)
  10:       153.33    0.001769  (  0.019269  -0.021940   0.030269)
  11:       184.89   34.823002  (  0.982972   5.654027  -1.374317)
  12:       223.60   42.234002  ( -6.205977   0.633905  -1.821541)
  13:       314.38    0.002210  (  0.045606   0.009625   0.006152)
  14:       327.85   61.909700  (  7.667825  -0.958769   1.481528)
  15:       483.13    1.106507  ( -0.088116   0.263230   1.014620)
  16:       526.63    0.001675  ( -0.004953  -0.039758   0.008366)
  17:       741.44    0.021611  ( -0.054990   0.006248  -0.136192)
  18:       786.88    0.004049  ( -0.030079  -0.047504   0.029798)
  19:       817.83   11.698279  ( -0.525579  -3.281652   0.807964)
  20:       847.04   17.108314  ( -3.572409   0.068385  -2.083635)
  21:      1297.37  243.191189  ( -2.652248   4.014929  14.833648)
  22:      1299.89    4.708179  ( -0.385032   0.519446   2.071257)
  23:      1679.18   30.812222  ( -4.946464   2.503116   0.281303)
  24:      1682.42   29.090402  (  2.610410   4.555154  -1.235611)
  25:      1685.57   28.490784  ( -4.971736   1.837131  -0.630537)
  26:      1686.80   27.273276  (  1.694559   4.812537  -1.114109)
  27:      3402.40    2.333626  ( -1.504646   0.233281  -0.123479)
  28:      3404.58    0.007465  ( -0.045180   0.073224  -0.007857)
  29:      3518.64   46.439691  ( -5.970158   0.053456  -3.285429)
  30:      3519.34    3.457759  (  0.955128  -1.294271   0.932927)
  31:      3532.37   52.361172  (  1.262723   6.932544  -1.645154)
  32:      3533.83    1.778808  ( -1.265451   0.112811  -0.405851)

--------------------------
THERMOCHEMISTRY AT 298.15K
--------------------------

Temperature         ... 298.15 K
Pressure            ... 1.00 atm
Total Mass          ... 300.06 AMU

Throughout the following assumptions are being made:
  (1) The electronic state is orbitally nondegenerate
  (2) There are no thermally accessible electronically excited states
  (3) Hindered rotations indicated by low frequency modes are not
      treated as such but are treated as vibrations and this may
      cause some error
  (4) All equations used are the standard statistical mechanics
      equations for an ideal gas
  (5) All vibrations are strictly harmonic

freq.      37.16  E(vib)   ...       0.54
freq.     105.45  E(vib)   ...       0.45
freq.     136.13  E(vib)   ...       0.42
freq.     153.33  E(vib)   ...       0.40
freq.     184.89  E(vib)   ...       0.37
freq.     223.60  E(vib)   ...       0.33
freq.     314.38  E(vib)   ...       0.25
freq.     327.85  E(vib)   ...       0.24
freq.     483.13  E(vib)   ...       0.15
freq.     526.63  E(vib)   ...       0.13
freq.     741.44  E(vib)   ...       0.06
freq.     786.88  E(vib)   ...       0.05
freq.     817.83  E(vib)   ...       0.05
freq.     847.04  E(vib)   ...       0.04
freq.    1297.37  E(vib)   ...       0.01
freq.    1299.89  E(vib)   ...       0.01
freq.    1679.18  E(vib)   ...       0.00
freq.    1682.42  E(vib)   ...       0.00
freq.    1685.57  E(vib)   ...       0.00
freq.    1686.80  E(vib)   ...       0.00
freq.    3402.40  E(vib)   ...       0.00
freq.    3404.58  E(vib)   ...       0.00
freq.    3518.64  E(vib)   ...       0.00
freq.    3519.34  E(vib)   ...       0.00
freq.    3532.37  E(vib)   ...       0.00
freq.    3533.83  E(vib)   ...       0.00

------------
INNER ENERGY
------------

The inner energy is: U= E(el) + E(ZPE) + E(vib) + E(rot) + E(trans)
    E(el)   - is the total energy from the electronic structure calculation
              = E(kin-el) + E(nuc-el) + E(el-el) + E(nuc-nuc)
    E(ZPE)  - the the zero temperature vibrational energy from the frequency calculation
    E(vib)  - the the finite temperature correction to E(ZPE) due to population
              of excited vibrational states
    E(rot)  - is the rotational thermal energy
    E(trans)- is the translational thermal energy

Summary of contributions to the inner energy U:
Electronic energy                ...  -1153.14804929 Eh
Zero point energy                ...      0.08185029 Eh      51.36 kcal/mol
Thermal vibrational correction   ...      0.00558257 Eh       3.50 kcal/mol
Thermal rotational correction    ...      0.00141627 Eh       0.89 kcal/mol
Thermal translational correction ...      0.00141627 Eh       0.89 kcal/mol
-----------------------------------------------------------------------
Total thermal energy                  -1153.05778388 Eh

Summary of corrections to the electronic energy:
(perhaps to be used in another calculation)
Total thermal correction                  0.00841511 Eh       5.28 kcal/mol
Non-thermal (ZPE) correction              0.08185029 Eh      51.36 kcal/mol
-----------------------------------------------------------------------
Total correction                          0.09026541 Eh      56.64 kcal/mol

--------
ENTHALPY
--------

The enthalpy is H = U + kB*T
                kB is Boltzmann's constant
Total free energy                 ...  -1153.05778388 Eh
Thermal Enthalpy correction       ...      0.00094421 Eh       0.59 kcal/mol
-----------------------------------------------------------------------
Total Enthalpy                    ...  -1153.05683968 Eh

Note: Only C1 symmetry has been detected, increase convergence thresholds
      if your molecule has a higher symmetry. Symmetry factor of 1.0 is
      used for the rotational entropy correction.

Note: Rotational entropy computed according to Herzberg
Infrared and Raman Spectra, Chapter V,1, Van Nostrand Reinhold, 1945
Point Group:  C1, Symmetry Number:   1
Rotational constants in cm-1:     0.109208     0.042939     0.031129

Vibrational entropy computed according to the QRRHO of S. Grimme
Chem.Eur.J. 2012 18 9955

-------
ENTROPY
-------

The entropy contributions are T*S = T*(S(el)+S(vib)+S(rot)+S(trans))
     S(el)   - electronic entropy
     S(vib)  - vibrational entropy
     S(rot)  - rotational entropy
     S(trans)- translational entropy
The entropies will be listed as mutliplied by the temperature to get
units of energy

Electronic entropy                ...      0.00000000 Eh      0.00 kcal/mol
Vibrational entropy               ...      0.01017227 Eh      6.38 kcal/mol
Rotational entropy                ...      0.01368036 Eh      8.58 kcal/mol
Translational entropy             ...      0.02042745 Eh     12.82 kcal/mol
-----------------------------------------------------------------------
Final entropy term                ...      0.04428007 Eh     27.79 kcal/mol

In case the symmetry of your molecule has not been determined correctly
or in case you have a reason to use a different symmetry number we print
out the resulting rotational entropy values for sn=1,12 :
 --------------------------------------------------------
|  sn= 1 | S(rot)=       0.01368036 Eh      8.58 kcal/mol|
|  sn= 2 | S(rot)=       0.01302590 Eh      8.17 kcal/mol|
|  sn= 3 | S(rot)=       0.01264307 Eh      7.93 kcal/mol|
|  sn= 4 | S(rot)=       0.01237144 Eh      7.76 kcal/mol|
|  sn= 5 | S(rot)=       0.01216076 Eh      7.63 kcal/mol|
|  sn= 6 | S(rot)=       0.01198861 Eh      7.52 kcal/mol|
|  sn= 7 | S(rot)=       0.01184307 Eh      7.43 kcal/mol|
|  sn= 8 | S(rot)=       0.01171699 Eh      7.35 kcal/mol|
|  sn= 9 | S(rot)=       0.01160578 Eh      7.28 kcal/mol|
|  sn=10 | S(rot)=       0.01150630 Eh      7.22 kcal/mol|
|  sn=11 | S(rot)=       0.01141631 Eh      7.16 kcal/mol|
|  sn=12 | S(rot)=       0.01133416 Eh      7.11 kcal/mol|
 --------------------------------------------------------

-------------------
GIBBS FREE ENERGY
-------------------

The Gibbs free energy is G = H - T*S

Total enthalpy                    ...  -1153.05683968 Eh
Total entropy correction          ...     -0.04428007 Eh    -27.79 kcal/mol
-----------------------------------------------------------------------
Final Gibbs free energy         ...  -1153.10111975 Eh

For completeness - the Gibbs free energy minus the electronic energy
G-E(el)                           ...      0.04692954 Eh     29.45 kcal/mol

                             ****ORCA TERMINATED NORMALLY****
TOTAL RUN TIME: 0 days 0 hours 4 minutes 47 seconds 458 msec
