                         Program Version 4.2.1 -  RELEASE  -
|  1> ! revPBE D4 gCP(DFT/TZ) def2-TZVP OptTS Freq IRC TightOpt TightSCF Grid4 FinalGrid5
|  2>
|  3> %geom
|  4>  ts_mode
|  5>   {B 0 4}
|  6>  end
|  7>  ts_active_atoms
|  8>   {0 1 2 4}
|  9>  end
| 10> end
| 11>
| 12> %geom
| 13>  inhess read
| 14>  inhessname "freq.hess"
| 15> end
| 16>
| 17> %irc
| 18>  maxiter 1000
| 19>  de_init_displ 0.5
| 20> end
| 21>
| 22> %pal
| 23>  nprocs 4
| 24> end
| 25>
| 26> *xyzfile 0 1 init.xyz
| 27>
| 28>                          ****END OF INPUT****
 Total Charge           Charge          ....    0
 Multiplicity           Mult            ....    1
 Number of Electrons    NEL             ....   24
Dispersion correction           -0.008452025
FINAL SINGLE POINT ENERGY      -189.692857258376
Dispersion correction            ...
Dispersion correction           -0.007949452
FINAL SINGLE POINT ENERGY      -189.696545883736
Dispersion correction            ...
Dispersion correction           -0.007700154
FINAL SINGLE POINT ENERGY      -189.696676736612
Dispersion correction            ...
FINAL SINGLE POINT ENERGY      -189.696686237921
Dispersion correction           -0.007746553
FINAL SINGLE POINT ENERGY      -189.696710547806
Dispersion correction            ...
Dispersion correction           -0.007743763
FINAL SINGLE POINT ENERGY      -189.696709910514
Dispersion correction            ...
                    ***********************HURRAY********************

CARTESIAN COORDINATES (ANGSTROEM)
---------------------------------
  C     -0.334195    0.261367   -0.033982
  O     -0.699870   -0.943896    0.121545
  H      0.618268   -0.807644    0.104795
  O     -0.695763    1.379502   -0.178740
  H      1.111560    0.110671   -0.013618

 Multiplicity           Mult            ....    1
 Number of Electrons    NEL             ....   24
 Basis Dimension        Dim             ....  105

ORBITAL ENERGIES
----------------

  NO   OCC          E(Eh)            E(eV)
   0   2.0000     -18.820742      -512.1384
   1   2.0000     -18.820519      -512.1324
   2   2.0000     -10.085470      -274.4396
   3   2.0000      -1.051458       -28.6116
   4   2.0000      -0.995416       -27.0866
   5   2.0000      -0.575560       -15.6618
   6   2.0000      -0.496447       -13.5090
   7   2.0000      -0.449128       -12.2214
   8   2.0000      -0.441163       -12.0046
   9   2.0000      -0.340811        -9.2739
  10   2.0000      -0.313935        -8.5426
  11   2.0000      -0.277741        -7.5577
  12   0.0000      -0.079779        -2.1709
  13   0.0000      -0.048699        -1.3252
  14   0.0000       0.027127         0.7382
  15   0.0000       0.069231         1.8839
  16   0.0000       0.160893         4.3781

MULLIKEN ATOMIC CHARGES
-----------------------
   0 C :    0.215560
   1 O :   -0.246745
   2 H :    0.252092
   3 O :   -0.146043
   4 H :   -0.074865
Sum of atomic charges:   -0.0000000

LOEWDIN ATOMIC CHARGES
----------------------
   0 C :   -0.596174
   1 O :    0.067687
   2 H :    0.252800
   3 O :    0.201470
   4 H :    0.074218

  Mayer bond orders larger than 0.100000
B(  0-C ,  1-O ) :   1.5799 B(  0-C ,  2-H ) :   0.2209 B(  0-C ,  3-O ) :   2.1421
B(  0-C ,  4-H ) :   0.4869 B(  1-O ,  2-H ) :   0.3021 B(  1-O ,  3-O ) :   0.1082
B(  1-O ,  4-H ) :   0.1144 B(  2-H ,  3-O ) :   0.1159 B(  2-H ,  4-H ) :   0.3460

Dispersion correction           -0.007744290
FINAL SINGLE POINT ENERGY      -189.696710435086

DIPOLE MOMENT
-------------
                                X             Y             Z
Electronic contribution:     -1.98704       0.75649      -0.09901
Nuclear contribution   :      2.62091      -1.03695       0.13568
                        -----------------------------------------
Total Dipole Moment    :      0.63387      -0.28046       0.03667
                        -----------------------------------------
Magnitude (a.u.)       :      0.69411
Magnitude (Debye)      :      1.76429

Dispersion correction in the Hessian             ...

VIBRATIONAL FREQUENCIES
-----------------------

Scaling factor for frequencies =  1.000000000  (already applied!)

   0:         0.00 cm**-1
   1:         0.00 cm**-1
   2:         0.00 cm**-1
   3:         0.00 cm**-1
   4:         0.00 cm**-1
   5:         0.00 cm**-1
   6:     -2042.26 cm**-1 ***imaginary mode***
   7:       598.70 cm**-1
   8:       666.97 cm**-1
   9:       935.03 cm**-1
  10:      1000.81 cm**-1
  11:      1300.36 cm**-1
  12:      1587.13 cm**-1
  13:      1994.96 cm**-1
  14:      2071.32 cm**-1

IR SPECTRUM
-----------

 Mode    freq (cm**-1)   T**2         TX         TY         TZ
-------------------------------------------------------------------
   7:       598.70    0.743924  ( -0.000554  -0.111698  -0.855247)
   8:       666.97  224.515356  (-14.977477   0.431581  -0.065479)
   9:       935.03  206.297048  (-14.360419  -0.273286   0.026769)
  10:      1000.81   31.236759  (  0.003922  -0.715591  -5.542984)
  11:      1300.36  144.370676  ( 11.162648   4.410081  -0.563165)
  12:      1587.13   70.788523  (  4.410543  -7.105432   0.921127)
  13:      1994.96  178.076797  (-10.061564   8.692865  -1.129526)
  14:      2071.32  431.573944  ( -6.754788 -19.484023   2.513884)

--------------------------
THERMOCHEMISTRY AT 298.15K
--------------------------

Temperature         ... 298.15 K
Pressure            ... 1.00 atm
Total Mass          ... 46.02 AMU

Throughout the following assumptions are being made:
  (1) The electronic state is orbitally nondegenerate
  (2) There are no thermally accessible electronically excited states
  (3) Hindered rotations indicated by low frequency modes are not
      treated as such but are treated as vibrations and this may
      cause some error
  (4) All equations used are the standard statistical mechanics
      equations for an ideal gas
  (5) All vibrations are strictly harmonic

freq.     598.70  E(vib)   ...       0.10
freq.     666.97  E(vib)   ...       0.08
freq.     935.03  E(vib)   ...       0.03
freq.    1000.81  E(vib)   ...       0.02
freq.    1300.36  E(vib)   ...       0.01
freq.    1587.13  E(vib)   ...       0.00
freq.    1994.96  E(vib)   ...       0.00
freq.    2071.32  E(vib)   ...       0.00

------------
INNER ENERGY
------------

The inner energy is: U= E(el) + E(ZPE) + E(vib) + E(rot) + E(trans)
    E(el)   - is the total energy from the electronic structure calculation
              = E(kin-el) + E(nuc-el) + E(el-el) + E(nuc-nuc)
    E(ZPE)  - the the zero temperature vibrational energy from the frequency calculation
    E(vib)  - the the finite temperature correction to E(ZPE) due to population
              of excited vibrational states
    E(rot)  - is the rotational thermal energy
    E(trans)- is the translational thermal energy

Summary of contributions to the inner energy U:
Electronic energy                ...   -189.69671044 Eh
Zero point energy                ...      0.02313545 Eh      14.52 kcal/mol
Thermal vibrational correction   ...      0.00038699 Eh       0.24 kcal/mol
Thermal rotational correction    ...      0.00141627 Eh       0.89 kcal/mol
Thermal translational correction ...      0.00141627 Eh       0.89 kcal/mol
-----------------------------------------------------------------------
Total thermal energy                   -189.67035546 Eh

Summary of corrections to the electronic energy:
(perhaps to be used in another calculation)
Total thermal correction                  0.00321953 Eh       2.02 kcal/mol
Non-thermal (ZPE) correction              0.02313545 Eh      14.52 kcal/mol
-----------------------------------------------------------------------
Total correction                          0.02635498 Eh      16.54 kcal/mol

--------
ENTHALPY
--------

The enthalpy is H = U + kB*T
                kB is Boltzmann's constant
Total free energy                 ...   -189.67035546 Eh
Thermal Enthalpy correction       ...      0.00094421 Eh       0.59 kcal/mol
-----------------------------------------------------------------------
Total Enthalpy                    ...   -189.66941125 Eh

Note: Only C1 symmetry has been detected, increase convergence thresholds
      if your molecule has a higher symmetry. Symmetry factor of 1.0 is
      used for the rotational entropy correction.

Note: Rotational entropy computed according to Herzberg
Infrared and Raman Spectra, Chapter V,1, Van Nostrand Reinhold, 1945
Point Group:  C1, Symmetry Number:   1
Rotational constants in cm-1:     3.139247     0.374243     0.334380

Vibrational entropy computed according to the QRRHO of S. Grimme
Chem.Eur.J. 2012 18 9955

-------
ENTROPY
-------

The entropy contributions are T*S = T*(S(el)+S(vib)+S(rot)+S(trans))
     S(el)   - electronic entropy
     S(vib)  - vibrational entropy
     S(rot)  - rotational entropy
     S(trans)- translational entropy
The entropies will be listed as mutliplied by the temperature to get
units of energy

Electronic entropy                ...      0.00000000 Eh      0.00 kcal/mol
Vibrational entropy               ...      0.00050034 Eh      0.31 kcal/mol
Rotational entropy                ...      0.00995191 Eh      6.24 kcal/mol
Translational entropy             ...      0.01777224 Eh     11.15 kcal/mol
-----------------------------------------------------------------------
Final entropy term                ...      0.02822448 Eh     17.71 kcal/mol

In case the symmetry of your molecule has not been determined correctly
or in case you have a reason to use a different symmetry number we print
out the resulting rotational entropy values for sn=1,12 :
 --------------------------------------------------------
|  sn= 1 | S(rot)=       0.00995191 Eh      6.24 kcal/mol|
|  sn= 2 | S(rot)=       0.00929745 Eh      5.83 kcal/mol|
|  sn= 3 | S(rot)=       0.00891462 Eh      5.59 kcal/mol|
|  sn= 4 | S(rot)=       0.00864299 Eh      5.42 kcal/mol|
|  sn= 5 | S(rot)=       0.00843230 Eh      5.29 kcal/mol|
|  sn= 6 | S(rot)=       0.00826016 Eh      5.18 kcal/mol|
|  sn= 7 | S(rot)=       0.00811461 Eh      5.09 kcal/mol|
|  sn= 8 | S(rot)=       0.00798854 Eh      5.01 kcal/mol|
|  sn= 9 | S(rot)=       0.00787733 Eh      4.94 kcal/mol|
|  sn=10 | S(rot)=       0.00777785 Eh      4.88 kcal/mol|
|  sn=11 | S(rot)=       0.00768786 Eh      4.82 kcal/mol|
|  sn=12 | S(rot)=       0.00760570 Eh      4.77 kcal/mol|
 --------------------------------------------------------

-------------------
GIBBS FREE ENERGY
-------------------

The Gibbs free energy is G = H - T*S

Total enthalpy                    ...   -189.66941125 Eh
Total entropy correction          ...     -0.02822448 Eh    -17.71 kcal/mol
-----------------------------------------------------------------------
Final Gibbs free energy         ...   -189.69763573 Eh

For completeness - the Gibbs free energy minus the electronic energy
G-E(el)                           ...     -0.00092529 Eh     -0.58 kcal/mol

                      ***********************HURRAY********************
                             ****ORCA TERMINATED NORMALLY****
TOTAL RUN TIME: 0 days 0 hours 29 minutes 10 seconds 909 msec
