                         Program Version 4.2.1 -  RELEASE  -
|  1> ! B97-3c Opt Freq TightOpt TightSCF
|  2>
|  3> %pal
|  4>  nprocs 12
|  5> end
|  6>
|  7> *xyz 0 1
|  8> P         -4.04720       -1.78475        0.89784
|  9> C         -5.68588       -1.66629        0.02614
| 10> C         -3.68193       -3.60867        0.92203
| 11> C         -3.00008       -1.19628       -0.51010
| 12> C         -2.00502       -0.24050       -0.26901
| 13> C         -3.18112       -1.69471       -1.81253
| 14> C         -2.36965       -1.24113       -2.85627
| 15> H         -3.94406       -2.43414       -2.01665
| 16> C         -1.19247        0.20805       -1.31504
| 17> H         -1.85522        0.14884        0.73012
| 18> C         -1.37446       -0.29197       -2.60759
| 19> H         -0.42013        0.94156       -1.12326
| 20> H         -0.74408        0.05521       -3.41606
| 21> H         -2.51012       -1.62805       -3.85745
| 22> C         -6.37078       -2.79755       -0.45821
| 23> C         -6.25358       -0.39590       -0.15399
| 24> C         -7.60191       -2.65134       -1.10527
| 25> H         -5.96393       -3.78929       -0.35111
| 26> C         -7.48584       -0.25543       -0.79995
| 27> C         -8.15974       -1.38253       -1.27457
| 28> H         -5.74041        0.48496        0.21056
| 29> H         -7.91845        0.72791       -0.93224
| 30> H         -8.12340       -3.52400       -1.47700
| 31> H         -9.11334       -1.27299       -1.77496
| 32> C         -2.59286       -4.16410        0.22316
| 33> C         -4.49217       -4.44871        1.70225
| 34> C         -4.23724       -5.82175        1.76274
| 35> H         -5.32436       -4.03625        2.25895
| 36> C         -2.34111       -5.53752        0.28885
| 37> H         -1.92985       -3.54851       -0.36422
| 38> C         -3.16386       -6.36607        1.05447
| 39> H         -1.50316       -5.95866       -0.25165
| 40> H         -2.96537       -7.42872        1.10395
| 41> H         -4.87067       -6.46328        2.36129
| 42> *
| 43>
| 44>                          ****END OF INPUT****
 Total Charge           Charge          ....    0
 Multiplicity           Mult            ....    1
 Number of Electrons    NEL             ....  138
Dispersion correction           -0.111058545
FINAL SINGLE POINT ENERGY     -1035.897593943087
Dispersion correction            ... done
Dispersion correction           -0.111202221
FINAL SINGLE POINT ENERGY     -1035.900789919394
Dispersion correction            ... done
Dispersion correction           -0.111302253
FINAL SINGLE POINT ENERGY     -1035.901631466533
Dispersion correction            ... done
FINAL SINGLE POINT ENERGY     -1035.902055300422
FINAL SINGLE POINT ENERGY     -1035.902326695539
FINAL SINGLE POINT ENERGY     -1035.902425624664
FINAL SINGLE POINT ENERGY     -1035.902487041372
FINAL SINGLE POINT ENERGY     -1035.902500955197
FINAL SINGLE POINT ENERGY     -1035.902506053553
FINAL SINGLE POINT ENERGY     -1035.902508284394
Dispersion correction           -0.111315693
FINAL SINGLE POINT ENERGY     -1035.902509347081
Dispersion correction            ... done
Dispersion correction           -0.111318161
FINAL SINGLE POINT ENERGY     -1035.902509795453
Dispersion correction            ... done
                    ***********************HURRAY********************

CARTESIAN COORDINATES (ANGSTROEM)
---------------------------------
  P     -4.148566   -1.680662    0.776495
  C     -5.763704   -1.750860   -0.102375
  C     -3.719144   -3.465344    0.907234
  C     -3.019652   -1.130940   -0.568862
  C     -1.721292   -0.772911   -0.201427
  C     -3.384030   -1.053707   -1.911188
  C     -2.467620   -0.632252   -2.865036
  H     -4.386000   -1.324084   -2.212928
  C     -0.802986   -0.366656   -1.156390
  H     -1.430829   -0.815932    0.841395
  C     -1.175263   -0.291795   -2.492432
  H      0.201169   -0.096538   -0.856653
  H     -0.462184    0.034811   -3.237983
  H     -2.764937   -0.575022   -3.904115
  C     -6.294496   -2.907379   -0.669012
  C     -6.488413   -0.561174   -0.195749
  C     -7.520768   -2.872939   -1.318754
  H     -5.748352   -3.837674   -0.604169
  C     -7.705071   -0.524718   -0.858140
  C     -8.227122   -1.683093   -1.419199
  H     -6.091986    0.341812    0.252686
  H     -8.252648    0.406158   -0.926326
  H     -7.922272   -3.779750   -1.752153
  H     -9.182021   -1.658306   -1.927702
  C     -2.938106   -4.148621   -0.022400
  C     -4.217351   -4.161043    2.010034
  C     -3.956941   -5.513067    2.169378
  H     -4.813803   -3.636489    2.746747
  C     -2.665940   -5.499259    0.145679
  H     -2.542946   -3.623177   -0.880350
  C     -3.176515   -6.185709    1.238143
  H     -2.055929   -6.017323   -0.582956
  H     -2.963901   -7.238978    1.366488
  H     -4.353834   -6.039939    3.027240

 Multiplicity           Mult            ....    1
 Number of Electrons    NEL             ....  138
 Basis Dimension        Dim             ....  409

ORBITAL ENERGIES
----------------

  NO   OCC          E(Eh)            E(eV)
   0   2.0000     -76.281276     -2075.7191
   1   2.0000      -9.904724      -269.5212
   2   2.0000      -9.904676      -269.5199
   3   2.0000      -9.904611      -269.5182
   4   2.0000      -9.897832      -269.3337
   5   2.0000      -9.897595      -269.3273
   6   2.0000      -9.897524      -269.3253
   7   2.0000      -9.897318      -269.3197
   8   2.0000      -9.897011      -269.3114
   9   2.0000      -9.896971      -269.3103
  10   2.0000      -9.896731      -269.3037
  11   2.0000      -9.896500      -269.2975
  12   2.0000      -9.896475      -269.2968
  13   2.0000      -9.896454      -269.2962
  14   2.0000      -9.896191      -269.2891
  15   2.0000      -9.896187      -269.2889
  16   2.0000      -9.895712      -269.2760
  17   2.0000      -9.895459      -269.2691
  18   2.0000      -9.895445      -269.2687
  19   2.0000      -6.341993      -172.5744
  20   2.0000      -4.564305      -124.2011
  21   2.0000      -4.564282      -124.2004
  22   2.0000      -4.561308      -124.1195
  23   2.0000      -0.793486       -21.5918
  24   2.0000      -0.786184       -21.3931
  25   2.0000      -0.786019       -21.3887
  26   2.0000      -0.707943       -19.2641
  27   2.0000      -0.685132       -18.6434
  28   2.0000      -0.685073       -18.6418
  29   2.0000      -0.683836       -18.6081
  30   2.0000      -0.679261       -18.4836
  31   2.0000      -0.679192       -18.4818
  32   2.0000      -0.591865       -16.1055
  33   2.0000      -0.553722       -15.0675
  34   2.0000      -0.553609       -15.0645
  35   2.0000      -0.551948       -15.0193
  36   2.0000      -0.542091       -14.7510
  37   2.0000      -0.542051       -14.7499
  38   2.0000      -0.507909       -13.8209
  39   2.0000      -0.472106       -12.8467
  40   2.0000      -0.471982       -12.8433
  41   2.0000      -0.448573       -12.2063
  42   2.0000      -0.412465       -11.2237
  43   2.0000      -0.412340       -11.2203
  44   2.0000      -0.409116       -11.1326
  45   2.0000      -0.404476       -11.0063
  46   2.0000      -0.404455       -11.0058
  47   2.0000      -0.398088       -10.8325
  48   2.0000      -0.380276       -10.3478
  49   2.0000      -0.379667       -10.3313
  50   2.0000      -0.379541       -10.3278
  51   2.0000      -0.366777        -9.9805
  52   2.0000      -0.366545        -9.9742
  53   2.0000      -0.335056        -9.1173
  54   2.0000      -0.331533        -9.0215
  55   2.0000      -0.331282        -9.0146
  56   2.0000      -0.325389        -8.8543
  57   2.0000      -0.307002        -8.3539
  58   2.0000      -0.306891        -8.3509
  59   2.0000      -0.306264        -8.3339
  60   2.0000      -0.286801        -7.8043
  61   2.0000      -0.286696        -7.8014
  62   2.0000      -0.246917        -6.7190
  63   2.0000      -0.234279        -6.3751
  64   2.0000      -0.233965        -6.3665
  65   2.0000      -0.233606        -6.3567
  66   2.0000      -0.226980        -6.1764
  67   2.0000      -0.226910        -6.1745
  68   2.0000      -0.188619        -5.1326
  69   0.0000      -0.050892        -1.3848
  70   0.0000      -0.050516        -1.3746
  71   0.0000      -0.047940        -1.3045
  72   0.0000      -0.035152        -0.9565
  73   0.0000      -0.031631        -0.8607

MULLIKEN ATOMIC CHARGES
-----------------------
   0 P :    0.267884
   1 C :   -0.372520
   2 C :   -0.378946
   3 C :   -0.376211
   4 C :   -0.090779
   5 C :   -0.002190
   6 C :   -0.144672
   7 H :    0.188986
   8 C :   -0.147363
   9 H :    0.177303
  10 C :   -0.174058
  11 H :    0.159079
  12 H :    0.158335
  13 H :    0.160733
  14 C :    0.004658
  15 C :   -0.099579
  16 C :   -0.146709
  17 H :    0.189313
  18 C :   -0.142191
  19 C :   -0.176613
  20 H :    0.178536
  21 H :    0.158481
  22 H :    0.162383
  23 H :    0.157907
  24 C :    0.000811
  25 C :   -0.093072
  26 C :   -0.144601
  27 H :    0.177779
  28 C :   -0.147970
  29 H :    0.190470
  30 C :   -0.176271
  31 H :    0.162603
  32 H :    0.159209
  33 H :    0.159276
Sum of atomic charges:   -0.0000000

LOEWDIN ATOMIC CHARGES
----------------------
   0 P :    0.788817
   1 C :   -0.286066
   2 C :   -0.286271
   3 C :   -0.286081
   4 C :   -0.168577
   5 C :   -0.166209
   6 C :   -0.160882
   7 H :    0.177829
   8 C :   -0.160575
   9 H :    0.167620
  10 C :   -0.159819
  11 H :    0.164838
  12 H :    0.164044
  13 H :    0.164417
  14 C :   -0.165262
  15 C :   -0.169260
  16 C :   -0.160869
  17 H :    0.177815
  18 C :   -0.160592
  19 C :   -0.159832
  20 H :    0.167729
  21 H :    0.164808
  22 H :    0.164450
  23 H :    0.164067
  24 C :   -0.165280
  25 C :   -0.169112
  26 C :   -0.160633
  27 H :    0.167690
  28 C :   -0.161134
  29 H :    0.178089
  30 C :   -0.159411
  31 H :    0.164603
  32 H :    0.164154
  33 H :    0.164895

  Mayer bond orders larger than 0.100000
B(  0-P ,  1-C ) :   0.9947 B(  0-P ,  2-C ) :   0.9998 B(  0-P ,  3-C ) :   0.9983
B(  1-C , 14-C ) :   1.2705 B(  1-C , 15-C ) :   1.4312 B(  2-C , 24-C ) :   1.2652
B(  2-C , 25-C ) :   1.4305 B(  3-C ,  4-C ) :   1.4298 B(  3-C ,  5-C ) :   1.2687
B(  4-C ,  8-C ) :   1.5472 B(  4-C ,  9-H ) :   0.8767 B(  5-C ,  6-C ) :   1.4692
B(  5-C ,  7-H ) :   0.8964 B(  6-C , 10-C ) :   1.4987 B(  6-C , 13-H ) :   0.9066
B(  8-C , 10-C ) :   1.4853 B(  8-C , 11-H ) :   0.9109 B( 10-C , 12-H ) :   0.9076
B( 14-C , 16-C ) :   1.4728 B( 14-C , 17-H ) :   0.8934 B( 15-C , 18-C ) :   1.5470
B( 15-C , 20-H ) :   0.8789 B( 16-C , 19-C ) :   1.4955 B( 16-C , 22-H ) :   0.9078
B( 18-C , 19-C ) :   1.4857 B( 18-C , 21-H ) :   0.9090 B( 19-C , 23-H ) :   0.9085
B( 24-C , 28-C ) :   1.4782 B( 24-C , 29-H ) :   0.8932 B( 25-C , 26-C ) :   1.5446
B( 25-C , 27-H ) :   0.8790 B( 26-C , 30-C ) :   1.4844 B( 26-C , 33-H ) :   0.9096
B( 28-C , 30-C ) :   1.4981 B( 28-C , 31-H ) :   0.9065 B( 30-C , 32-H ) :   0.9083

Dispersion correction           -0.111319667
FINAL SINGLE POINT ENERGY     -1035.902509903170

DIPOLE MOMENT
-------------
                                X             Y             Z
Electronic contribution:      0.12584       2.90229       4.67383
Nuclear contribution   :     -0.13689      -3.21942      -5.16816
                        -----------------------------------------
Total Dipole Moment    :     -0.01105      -0.31713      -0.49433
                        -----------------------------------------
Magnitude (a.u.)       :      0.58742
Magnitude (Debye)      :      1.49309

Dispersion correction in the Hessian             ... done   (      1.4 sec)

VIBRATIONAL FREQUENCIES
-----------------------

Scaling factor for frequencies =  1.000000000  (already applied!)

   0:         0.00 cm**-1
   1:         0.00 cm**-1
   2:         0.00 cm**-1
   3:         0.00 cm**-1
   4:         0.00 cm**-1
   5:         0.00 cm**-1
   6:        21.00 cm**-1
   7:        26.96 cm**-1
   8:        46.88 cm**-1
   9:        52.76 cm**-1
  10:        53.31 cm**-1
  11:        67.67 cm**-1
  12:       185.72 cm**-1
  13:       200.36 cm**-1
  14:       201.81 cm**-1
  15:       247.40 cm**-1
  16:       261.93 cm**-1
  17:       263.52 cm**-1
  18:       392.80 cm**-1
  19:       393.85 cm**-1
  20:       398.26 cm**-1
  21:       404.96 cm**-1
  22:       428.45 cm**-1
  23:       429.59 cm**-1
  24:       494.39 cm**-1
  25:       495.42 cm**-1
  26:       505.09 cm**-1
  27:       635.35 cm**-1
  28:       635.42 cm**-1
  29:       635.58 cm**-1
  30:       683.15 cm**-1
  31:       684.06 cm**-1
  32:       684.91 cm**-1
  33:       697.31 cm**-1
  34:       709.80 cm**-1
  35:       709.95 cm**-1
  36:       732.59 cm**-1
  37:       733.12 cm**-1
  38:       733.18 cm**-1
  39:       836.50 cm**-1
  40:       836.62 cm**-1
  41:       839.60 cm**-1
  42:       889.16 cm**-1
  43:       889.40 cm**-1
  44:       890.13 cm**-1
  45:       913.87 cm**-1
  46:       914.59 cm**-1
  47:       914.84 cm**-1
  48:       948.57 cm**-1
  49:       948.76 cm**-1
  50:       949.60 cm**-1
  51:      1018.95 cm**-1
  52:      1019.12 cm**-1
  53:      1019.14 cm**-1
  54:      1044.26 cm**-1
  55:      1044.37 cm**-1
  56:      1044.83 cm**-1
  57:      1094.62 cm**-1
  58:      1095.18 cm**-1
  59:      1095.41 cm**-1
  60:      1099.70 cm**-1
  61:      1099.84 cm**-1
  62:      1108.50 cm**-1
  63:      1180.00 cm**-1
  64:      1180.37 cm**-1
  65:      1180.61 cm**-1
  66:      1204.52 cm**-1
  67:      1205.42 cm**-1
  68:      1206.31 cm**-1
  69:      1317.72 cm**-1
  70:      1322.61 cm**-1
  71:      1323.25 cm**-1
  72:      1354.69 cm**-1
  73:      1355.38 cm**-1
  74:      1355.87 cm**-1
  75:      1459.51 cm**-1
  76:      1461.03 cm**-1
  77:      1461.33 cm**-1
  78:      1508.45 cm**-1
  79:      1509.42 cm**-1
  80:      1509.76 cm**-1
  81:      1600.08 cm**-1
  82:      1601.19 cm**-1
  83:      1601.42 cm**-1
  84:      1615.18 cm**-1
  85:      1615.38 cm**-1
  86:      1617.35 cm**-1
  87:      3109.49 cm**-1
  88:      3109.84 cm**-1
  89:      3109.85 cm**-1
  90:      3120.12 cm**-1
  91:      3120.31 cm**-1
  92:      3120.36 cm**-1
  93:      3129.14 cm**-1
  94:      3129.23 cm**-1
  95:      3129.51 cm**-1
  96:      3139.70 cm**-1
  97:      3139.96 cm**-1
  98:      3140.41 cm**-1
  99:      3146.02 cm**-1
 100:      3146.80 cm**-1
 101:      3147.81 cm**-1

IR SPECTRUM
-----------

 Mode    freq (cm**-1)   T**2         TX         TY         TZ
-------------------------------------------------------------------
   6:        21.00    0.336901  (  0.420419  -0.353748   0.187113)
   7:        26.96    0.332093  ( -0.399574  -0.345141   0.230892)
   8:        46.88    0.007527  ( -0.059388  -0.040706   0.048409)
   9:        52.76    0.126031  ( -0.354262   0.022591   0.004324)
  10:        53.31    0.131216  (  0.038138   0.309445  -0.184405)
  11:        67.67    0.491743  (  0.032171   0.353382   0.604838)
  12:       185.72    0.362680  ( -0.016684  -0.348393  -0.490942)
  13:       200.36    1.269243  ( -0.331158   0.914074  -0.569251)
  14:       201.81    1.280243  ( -1.078916  -0.258547   0.222120)
  15:       247.40    0.793031  ( -0.039615  -0.480508  -0.748715)
  16:       261.93    0.229338  ( -0.229284  -0.348212   0.235617)
  17:       263.52    0.251207  ( -0.444984   0.203230  -0.109061)
  18:       392.80    1.054337  (  0.188144  -0.854387   0.537552)
  19:       393.85    1.070099  (  1.016272   0.148291  -0.123696)
  20:       398.26    0.013948  (  0.017140   0.080357  -0.084834)
  21:       404.96    0.248714  ( -0.001079   0.299801   0.398538)
  22:       428.45    4.304285  ( -1.606809  -1.085988   0.736941)
  23:       429.59    4.554273  ( -1.369308   1.416730  -0.819844)
  24:       494.39   26.302003  ( -0.841423  -4.394381   2.506677)
  25:       495.42   26.369240  (  5.073226  -0.694295   0.386746)
  26:       505.09   17.334160  ( -0.072279   2.057671   3.618691)
  27:       635.35    0.225463  ( -0.030335   0.397466  -0.258000)
  28:       635.42    0.222541  ( -0.470515   0.014076   0.030964)
  29:       635.58    0.027756  (  0.080576   0.058948   0.133374)
  30:       683.15   28.347703  (  3.035938  -4.342802   0.520439)
  31:       684.06   29.824210  (  4.340098   2.589685  -2.069129)
  32:       684.91   28.706669  ( -1.390735  -1.611166  -4.916978)
  33:       697.31    0.279384  ( -0.051166  -0.309990  -0.425055)
  34:       709.80    6.497782  (  2.497794   0.417715  -0.290382)
  35:       709.95    6.571184  ( -0.496512   2.184897  -1.245345)
  36:       732.59   30.984912  (  1.436850   5.172006   1.473339)
  37:       733.12   31.937717  (  4.652342  -0.184514  -3.203028)
  38:       733.18   30.790991  ( -2.996506   2.280481  -4.075703)
  39:       836.50    0.100748  (  0.185847  -0.215171   0.141103)
  40:       836.62    0.092795  ( -0.266066  -0.113009   0.096086)
  41:       839.60    0.301114  ( -0.038865  -0.285710  -0.466876)
  42:       889.16    1.091386  ( -0.687193  -0.662868   0.423979)
  43:       889.40    1.003643  ( -0.820270   0.506972  -0.271623)
  44:       890.13    0.203308  ( -0.146892   0.348201  -0.245940)
  45:       913.87    0.352133  ( -0.087722  -0.289379  -0.510585)
  46:       914.59    0.023548  ( -0.003421  -0.032408  -0.149952)
  47:       914.84    0.044879  (  0.105241  -0.126250  -0.133657)
  48:       948.57    0.052638  ( -0.004318  -0.194512   0.121594)
  49:       948.76    0.074538  (  0.271176  -0.029104  -0.012417)
  50:       949.60    0.002023  (  0.042343   0.013916  -0.006018)
  51:      1018.95    0.139472  ( -0.014707  -0.075024  -0.365550)
  52:      1019.12    1.471662  (  0.113206   1.036633  -0.619870)
  53:      1019.14    1.508799  ( -1.220606   0.130816  -0.042513)
  54:      1044.26    9.342681  ( -0.892505   2.523740  -1.475415)
  55:      1044.37    9.061730  (  2.903567   0.695764  -0.383331)
  56:      1044.83    0.832465  ( -0.542377  -0.150724   0.718036)
  57:      1094.62    2.039686  ( -0.727742   0.550946   1.098424)
  58:      1095.18    2.888444  ( -0.461150  -1.347134  -0.927909)
  59:      1095.41    1.817680  (  0.589116  -0.258974   1.184717)
  60:      1099.70    7.660170  (  0.137153  -2.344007   1.465261)
  61:      1099.84    7.261765  (  2.688071   0.080606  -0.171882)
  62:      1108.50    1.685131  ( -0.003968   0.690956   1.098952)
  63:      1180.00    0.029235  ( -0.088731  -0.105162   0.101501)
  64:      1180.37    0.104978  ( -0.036260   0.275437  -0.166725)
  65:      1180.61    0.114341  (  0.337942  -0.002532  -0.011390)
  66:      1204.52    5.044744  ( -0.465992  -1.711058   1.378359)
  67:      1205.42    5.404042  (  2.255806  -0.525279   0.198657)
  68:      1206.31    1.271908  ( -0.296279  -1.005070  -0.417087)
  69:      1317.72    3.182450  (  0.018415   0.942009   1.514836)
  70:      1322.61    2.272695  (  1.488410   0.205409  -0.123039)
  71:      1323.25    2.363334  ( -0.208605   1.304132  -0.786803)
  72:      1354.69    1.623796  ( -0.068408  -0.803428  -0.986721)
  73:      1355.38    0.473924  ( -0.195498  -0.070252  -0.656330)
  74:      1355.87    0.258859  (  0.327216  -0.049458  -0.386448)
  75:      1459.51   13.357234  (  0.086425   1.907440   3.116318)
  76:      1461.03    7.070000  ( -1.741909  -1.698347   1.073019)
  77:      1461.33    7.160642  (  1.971741  -1.564601   0.908242)
  78:      1508.45    3.598875  (  0.073185   1.827444   0.503951)
  79:      1509.42   12.400929  (  0.751291  -2.622946   2.226352)
  80:      1509.76   13.972295  (  3.670927   0.460883  -0.533083)
  81:      1600.08    0.529977  ( -0.028124  -0.350781  -0.637291)
  82:      1601.19    0.083390  ( -0.100779   0.187328  -0.195300)
  83:      1601.42    0.102285  ( -0.304008  -0.079610   0.059379)
  84:      1615.18    7.450531  ( -0.310048   2.279498  -1.469112)
  85:      1615.38    8.049112  ( -2.817890  -0.232688   0.233374)
  86:      1617.35    0.187302  (  0.015624  -0.398575  -0.167915)
  87:      3109.49    4.579087  ( -0.243611   0.175127  -2.118743)
  88:      3109.84    6.592789  (  0.307483  -1.968497  -1.619649)
  89:      3109.85    2.550506  ( -1.497703  -0.551103  -0.060646)
  90:      3120.12    0.248066  ( -0.412995  -0.189233   0.204185)
  91:      3120.31    0.226210  ( -0.313960   0.318835  -0.161195)
  92:      3120.36    0.122615  (  0.039383   0.308654  -0.160612)
  93:      3129.14   16.446310  (  3.495709  -0.986785   1.803492)
  94:      3129.23   29.819813  ( -1.406008   0.486168   5.254198)
  95:      3129.51   35.386947  ( -0.972066  -4.981680  -3.102402)
  96:      3139.70   46.992278  ( -2.200482  -5.149280   3.954121)
  97:      3139.96   38.871774  ( -6.177262   0.437584  -0.722307)
  98:      3140.41   19.654234  ( -3.346199   2.781775  -0.847888)
  99:      3146.02   23.447806  ( -1.872174   4.308178  -1.175744)
 100:      3146.80   19.933834  (  3.527951   1.267937  -2.424816)
 101:      3147.81   18.656206  (  1.783047   1.854033   3.469800)

--------------------------
THERMOCHEMISTRY AT 298.15K
--------------------------

Temperature         ... 298.15 K
Pressure            ... 1.00 atm
Total Mass          ... 262.29 AMU

Throughout the following assumptions are being made:
  (1) The electronic state is orbitally nondegenerate
  (2) There are no thermally accessible electronically excited states
  (3) Hindered rotations indicated by low frequency modes are not
      treated as such but are treated as vibrations and this may
      cause some error
  (4) All equations used are the standard statistical mechanics
      equations for an ideal gas
  (5) All vibrations are strictly harmonic

freq.      21.00  E(vib)   ...       0.56
freq.      26.96  E(vib)   ...       0.55
freq.      46.88  E(vib)   ...       0.53
freq.      52.76  E(vib)   ...       0.52
freq.      53.31  E(vib)   ...       0.52
freq.      67.67  E(vib)   ...       0.50
freq.     185.72  E(vib)   ...       0.37
freq.     200.36  E(vib)   ...       0.35
freq.     201.81  E(vib)   ...       0.35
freq.     247.40  E(vib)   ...       0.31
freq.     261.93  E(vib)   ...       0.29
freq.     263.52  E(vib)   ...       0.29
freq.     392.80  E(vib)   ...       0.20
freq.     393.85  E(vib)   ...       0.20
freq.     398.26  E(vib)   ...       0.20
freq.     404.96  E(vib)   ...       0.19
freq.     428.45  E(vib)   ...       0.18
freq.     429.59  E(vib)   ...       0.18
freq.     494.39  E(vib)   ...       0.14
freq.     495.42  E(vib)   ...       0.14
freq.     505.09  E(vib)   ...       0.14
freq.     635.35  E(vib)   ...       0.09
freq.     635.42  E(vib)   ...       0.09
freq.     635.58  E(vib)   ...       0.09
freq.     683.15  E(vib)   ...       0.08
freq.     684.06  E(vib)   ...       0.07
freq.     684.91  E(vib)   ...       0.07
freq.     697.31  E(vib)   ...       0.07
freq.     709.80  E(vib)   ...       0.07
freq.     709.95  E(vib)   ...       0.07
freq.     732.59  E(vib)   ...       0.06
freq.     733.12  E(vib)   ...       0.06
freq.     733.18  E(vib)   ...       0.06
freq.     836.50  E(vib)   ...       0.04
freq.     836.62  E(vib)   ...       0.04
freq.     839.60  E(vib)   ...       0.04
freq.     889.16  E(vib)   ...       0.04
freq.     889.40  E(vib)   ...       0.04
freq.     890.13  E(vib)   ...       0.04
freq.     913.87  E(vib)   ...       0.03
freq.     914.59  E(vib)   ...       0.03
freq.     914.84  E(vib)   ...       0.03
freq.     948.57  E(vib)   ...       0.03
freq.     948.76  E(vib)   ...       0.03
freq.     949.60  E(vib)   ...       0.03
freq.    1018.95  E(vib)   ...       0.02
freq.    1019.12  E(vib)   ...       0.02
freq.    1019.14  E(vib)   ...       0.02
freq.    1044.26  E(vib)   ...       0.02
freq.    1044.37  E(vib)   ...       0.02
freq.    1044.83  E(vib)   ...       0.02
freq.    1094.62  E(vib)   ...       0.02
freq.    1095.18  E(vib)   ...       0.02
freq.    1095.41  E(vib)   ...       0.02
freq.    1099.70  E(vib)   ...       0.02
freq.    1099.84  E(vib)   ...       0.02
freq.    1108.50  E(vib)   ...       0.02
freq.    1180.00  E(vib)   ...       0.01
freq.    1180.37  E(vib)   ...       0.01
freq.    1180.61  E(vib)   ...       0.01
freq.    1204.52  E(vib)   ...       0.01
freq.    1205.42  E(vib)   ...       0.01
freq.    1206.31  E(vib)   ...       0.01
freq.    1317.72  E(vib)   ...       0.01
freq.    1322.61  E(vib)   ...       0.01
freq.    1323.25  E(vib)   ...       0.01
freq.    1354.69  E(vib)   ...       0.01
freq.    1355.38  E(vib)   ...       0.01
freq.    1355.87  E(vib)   ...       0.01
freq.    1459.51  E(vib)   ...       0.00
freq.    1461.03  E(vib)   ...       0.00
freq.    1461.33  E(vib)   ...       0.00
freq.    1508.45  E(vib)   ...       0.00
freq.    1509.42  E(vib)   ...       0.00
freq.    1509.76  E(vib)   ...       0.00
freq.    1600.08  E(vib)   ...       0.00
freq.    1601.19  E(vib)   ...       0.00
freq.    1601.42  E(vib)   ...       0.00
freq.    1615.18  E(vib)   ...       0.00
freq.    1615.38  E(vib)   ...       0.00
freq.    1617.35  E(vib)   ...       0.00
freq.    3109.49  E(vib)   ...       0.00
freq.    3109.84  E(vib)   ...       0.00
freq.    3109.85  E(vib)   ...       0.00
freq.    3120.12  E(vib)   ...       0.00
freq.    3120.31  E(vib)   ...       0.00
freq.    3120.36  E(vib)   ...       0.00
freq.    3129.14  E(vib)   ...       0.00
freq.    3129.23  E(vib)   ...       0.00
freq.    3129.51  E(vib)   ...       0.00
freq.    3139.70  E(vib)   ...       0.00
freq.    3139.96  E(vib)   ...       0.00
freq.    3140.41  E(vib)   ...       0.00
freq.    3146.02  E(vib)   ...       0.00
freq.    3146.80  E(vib)   ...       0.00
freq.    3147.81  E(vib)   ...       0.00

------------
INNER ENERGY
------------

The inner energy is: U= E(el) + E(ZPE) + E(vib) + E(rot) + E(trans)
    E(el)   - is the total energy from the electronic structure calculation
              = E(kin-el) + E(nuc-el) + E(el-el) + E(nuc-nuc)
    E(ZPE)  - the the zero temperature vibrational energy from the frequency calculation
    E(vib)  - the the finite temperature correction to E(ZPE) due to population
              of excited vibrational states
    E(rot)  - is the rotational thermal energy
    E(trans)- is the translational thermal energy

Summary of contributions to the inner energy U:
Electronic energy                ...  -1035.90250990 Eh
Zero point energy                ...      0.26902318 Eh     168.81 kcal/mol
Thermal vibrational correction   ...      0.01332826 Eh       8.36 kcal/mol
Thermal rotational correction    ...      0.00141627 Eh       0.89 kcal/mol
Thermal translational correction ...      0.00141627 Eh       0.89 kcal/mol
-----------------------------------------------------------------------
Total thermal energy                  -1035.61732592 Eh

Summary of corrections to the electronic energy:
(perhaps to be used in another calculation)
Total thermal correction                  0.01616080 Eh      10.14 kcal/mol
Non-thermal (ZPE) correction              0.26902318 Eh     168.81 kcal/mol
-----------------------------------------------------------------------
Total correction                          0.28518398 Eh     178.96 kcal/mol

--------
ENTHALPY
--------

The enthalpy is H = U + kB*T
                kB is Boltzmann's constant
Total free energy                 ...  -1035.61732592 Eh
Thermal Enthalpy correction       ...      0.00094421 Eh       0.59 kcal/mol
-----------------------------------------------------------------------
Total Enthalpy                    ...  -1035.61638171 Eh

Note: Only C1 symmetry has been detected, increase convergence thresholds
      if your molecule has a higher symmetry. Symmetry factor of 1.0 is
      used for the rotational entropy correction.

Rotational constants in cm-1:     0.012053     0.012013     0.007136

                             ****ORCA TERMINATED NORMALLY****
TOTAL RUN TIME: 0 days 0 hours 19 minutes 43 seconds 272 msec
