                         Program Version 4.2.1 -  RELEASE  -
|  1> ! B97-3c Opt Freq TightOpt TightSCF
|  2>
|  3> %pal
|  4>  nprocs 12
|  5> end
|  6>
|  7> *xyz +2 1
|  8> C        2.910335976     -0.474492623      0.527740690
|  9> C        2.910335976      0.474492623     -0.527740690
| 10> N        1.608331352     -0.803056028      1.137600071
| 11> H        3.063678923      1.251237592      0.583116967
| 12> H        3.728597252     -0.676706099      1.092893183
| 13> N        1.608331352      0.803056028     -1.137600071
| 14> H        3.063678923     -1.251237592     -0.583116967
| 15> H        3.728597252      0.676706099     -1.092893183
| 16> Ru       0.000000000      0.000000000      0.000000000
| 17> H        1.569641634     -0.422855378      2.075651942
| 18> H        1.569641634      0.422855378     -2.075651942
| 19> H        1.544888761     -1.809220772      1.251975859
| 20> H        1.544888761      1.809220772     -1.251975859
| 21> C       -1.044245322     -2.757671200     -0.527740690
| 22> C       -1.866090653     -2.283178577      0.527740690
| 23> N       -0.108698755     -1.794383823     -1.137600071
| 24> H       -1.278253953     -3.567412990     -1.092893183
| 25> H       -0.448235920     -3.278842572      0.583116967
| 26> N       -1.499632597     -0.991327795      1.137600071
| 27> H       -2.450343299     -2.890706891      1.092893183
| 28> H       -2.615443002     -2.027604980     -0.583116967
| 29> H       -1.151024316     -1.147921841      2.075651942
| 30> H       -0.418617318     -1.570777219     -2.075651942
| 31> H        0.794386769     -2.242523299     -1.251975859
| 32> H       -2.339275530     -0.433302527      1.251975859
| 33> C       -1.044245322      2.757671200      0.527740690
| 34> C       -1.866090653      2.283178577     -0.527740690
| 35> N       -1.499632597      0.991327795     -1.137600071
| 36> H       -2.450343299      2.890706891     -1.092893183
| 37> H       -2.615443002      2.027604980      0.583116967
| 38> N       -0.108698755      1.794383823      1.137600071
| 39> H       -1.278253953      3.567412990      1.092893183
| 40> H       -0.448235920      3.278842572     -0.583116967
| 41> H        0.794386769      2.242523299      1.251975859
| 42> H       -1.151024316      1.147921841     -2.075651942
| 43> H       -0.418617318      1.570777219      2.075651942
| 44> H       -2.339275530      0.433302527     -1.251975859
| 45> *
| 46>
| 47>                          ****END OF INPUT****
 Total Charge           Charge          ....    2
 Multiplicity           Mult            ....    1
 Number of Electrons    NEL             ....  116
Dispersion correction           -0.103849395
FINAL SINGLE POINT ENERGY      -665.636848522182
Dispersion correction            ... done
Dispersion correction           -0.103221134
FINAL SINGLE POINT ENERGY      -665.724568724108
Dispersion correction            ... done
Dispersion correction           -0.102507021
FINAL SINGLE POINT ENERGY      -665.797838614978
Dispersion correction            ... done
FINAL SINGLE POINT ENERGY      -665.860647359297
FINAL SINGLE POINT ENERGY      -665.914573960332
FINAL SINGLE POINT ENERGY      -665.959720242599
FINAL SINGLE POINT ENERGY      -665.995845626038
FINAL SINGLE POINT ENERGY      -666.023651929086
FINAL SINGLE POINT ENERGY      -666.045145816279
FINAL SINGLE POINT ENERGY      -666.062215839987
FINAL SINGLE POINT ENERGY      -666.103701453654
FINAL SINGLE POINT ENERGY      -666.104076013709
FINAL SINGLE POINT ENERGY      -666.104163496822
FINAL SINGLE POINT ENERGY      -666.104179249547
FINAL SINGLE POINT ENERGY      -666.104193919727
FINAL SINGLE POINT ENERGY      -666.104197152424
FINAL SINGLE POINT ENERGY      -666.104198351085
Dispersion correction           -0.102375362
FINAL SINGLE POINT ENERGY      -666.104198522195
Dispersion correction            ... done
Dispersion correction           -0.102373869
FINAL SINGLE POINT ENERGY      -666.104198717284
Dispersion correction            ... done
                    ***********************HURRAY********************

CARTESIAN COORDINATES (ANGSTROEM)
---------------------------------
  C      2.883144   -0.667252    0.347692
  C      2.883144    0.667251   -0.347691
  N      1.625982   -0.794198    1.138533
  H      2.903107    1.475907    0.381401
  H      3.767655   -0.776932    0.973816
  N      1.625982    0.794198   -1.138533
  H      2.903107   -1.475908   -0.381401
  H      3.767655    0.776932   -0.973816
  Ru    -0.000862    0.000000   -0.000000
  H      1.748543   -0.280564    2.006870
  H      1.748543    0.280564   -2.006870
  H      1.537189   -1.762690    1.434098
  H      1.537190    1.762690   -1.434098
  C     -0.860615   -2.830691   -0.348457
  C     -2.018045   -2.165786    0.345932
  N     -0.123099   -1.804888   -1.139229
  H     -1.206751   -3.651765   -0.974996
  H     -0.170207   -3.253186    0.380345
  N     -1.505359   -1.008701    1.133486
  H     -2.551205   -2.877686    0.975042
  H     -2.732099   -1.787049   -0.384295
  H     -1.129910   -1.365962    2.007727
  H     -0.627737   -1.655713   -2.008746
  H      0.761724   -2.210148   -1.432714
  H     -2.301886   -0.445092    1.418508
  C     -0.860616    2.830691    0.348457
  C     -2.018046    2.165786   -0.345932
  N     -1.505359    1.008701   -1.133487
  H     -2.551206    2.877686   -0.975041
  H     -2.732098    1.787049    0.384295
  N     -0.123099    1.804888    1.139229
  H     -1.206751    3.651765    0.974996
  H     -0.170208    3.253186   -0.380344
  H      0.761724    2.210148    1.432714
  H     -1.129909    1.365962   -2.007727
  H     -0.627737    1.655713    2.008746
  H     -2.301885    0.445093   -1.418509

 Multiplicity           Mult            ....    1
 Number of Electrons    NEL             ....  116
 Basis Dimension        Dim             ....  333

ORBITAL ENERGIES
----------------

  NO   OCC          E(Eh)            E(eV)
   0   2.0000     -14.287917      -388.7940
   1   2.0000     -14.287915      -388.7939
   2   2.0000     -14.287881      -388.7930
   3   2.0000     -14.287879      -388.7929
   4   2.0000     -14.287605      -388.7855
   5   2.0000     -14.287600      -388.7854
   6   2.0000     -10.182433      -277.0781
   7   2.0000     -10.182429      -277.0780
   8   2.0000     -10.182271      -277.0737
   9   2.0000     -10.182269      -277.0736
  10   2.0000     -10.182175      -277.0711
  11   2.0000     -10.182041      -277.0674
  12   2.0000      -3.079669       -83.8021
  13   2.0000      -1.964126       -53.4466
  14   2.0000      -1.964035       -53.4441
  15   2.0000      -1.958431       -53.2916
  16   2.0000      -1.127520       -30.6814
  17   2.0000      -1.119203       -30.4551
  18   2.0000      -1.119128       -30.4530
  19   2.0000      -1.093805       -29.7639
  20   2.0000      -1.093617       -29.7588
  21   2.0000      -1.092864       -29.7384
  22   2.0000      -0.932450       -25.3733
  23   2.0000      -0.930845       -25.3296
  24   2.0000      -0.930650       -25.3243
  25   2.0000      -0.823385       -22.4054
  26   2.0000      -0.818635       -22.2762
  27   2.0000      -0.818632       -22.2761
  28   2.0000      -0.748874       -20.3779
  29   2.0000      -0.748538       -20.3687
  30   2.0000      -0.735703       -20.0195
  31   2.0000      -0.732937       -19.9442
  32   2.0000      -0.732819       -19.9410
  33   2.0000      -0.727673       -19.8010
  34   2.0000      -0.726886       -19.7796
  35   2.0000      -0.717526       -19.5249
  36   2.0000      -0.717353       -19.5202
  37   2.0000      -0.658686       -17.9238
  38   2.0000      -0.655644       -17.8410
  39   2.0000      -0.655375       -17.8337
  40   2.0000      -0.644269       -17.5315
  41   2.0000      -0.643748       -17.5173
  42   2.0000      -0.643653       -17.5147
  43   2.0000      -0.636960       -17.3326
  44   2.0000      -0.621026       -16.8990
  45   2.0000      -0.620693       -16.8899
  46   2.0000      -0.580914       -15.8075
  47   2.0000      -0.580873       -15.8064
  48   2.0000      -0.578749       -15.7486
  49   2.0000      -0.571144       -15.5416
  50   2.0000      -0.570934       -15.5359
  51   2.0000      -0.561006       -15.2657
  52   2.0000      -0.532833       -14.4991
  53   2.0000      -0.526873       -14.3369
  54   2.0000      -0.526719       -14.3327
  55   2.0000      -0.396775       -10.7968
  56   2.0000      -0.396751       -10.7961
  57   2.0000      -0.393606       -10.7106
  58   0.0000      -0.270203        -7.3526
  59   0.0000      -0.267079        -7.2676
  60   0.0000      -0.267019        -7.2660
  61   0.0000      -0.254766        -6.9325
  62   0.0000      -0.247262        -6.7283

MULLIKEN ATOMIC CHARGES
-----------------------
   0 C :   -0.293307
   1 C :   -0.293307
   2 N :   -0.723042
   3 H :    0.221390
   4 H :    0.252963
   5 N :   -0.723043
   6 H :    0.221389
   7 H :    0.252963
   8 Ru:    0.866316
   9 H :    0.366860
  10 H :    0.366860
  11 H :    0.365088
  12 H :    0.365088
  13 C :   -0.293587
  14 C :   -0.304265
  15 N :   -0.730025
  16 H :    0.253668
  17 H :    0.222855
  18 N :   -0.719485
  19 H :    0.254477
  20 H :    0.224682
  21 H :    0.368253
  22 H :    0.368832
  23 H :    0.366618
  24 H :    0.364868
  25 C :   -0.293587
  26 C :   -0.304265
  27 N :   -0.719485
  28 H :    0.254477
  29 H :    0.224682
  30 N :   -0.730026
  31 H :    0.253668
  32 H :    0.222855
  33 H :    0.366618
  34 H :    0.368253
  35 H :    0.368832
  36 H :    0.364868
Sum of atomic charges:    2.0000000

LOEWDIN ATOMIC CHARGES
----------------------
   0 C :   -0.195247
   1 C :   -0.195247
   2 N :   -0.334697
   3 H :    0.170952
   4 H :    0.186889
   5 N :   -0.334697
   6 H :    0.170952
   7 H :    0.186889
   8 Ru:   -0.449519
   9 H :    0.292481
  10 H :    0.292481
  11 H :    0.287713
  12 H :    0.287713
  13 C :   -0.195314
  14 C :   -0.195881
  15 N :   -0.335537
  16 H :    0.186956
  17 H :    0.171178
  18 N :   -0.334230
  19 H :    0.187172
  20 H :    0.171235
  21 H :    0.292715
  22 H :    0.292830
  23 H :    0.287836
  24 H :    0.287708
  25 C :   -0.195314
  26 C :   -0.195881
  27 N :   -0.334230
  28 H :    0.187172
  29 H :    0.171235
  30 N :   -0.335537
  31 H :    0.186956
  32 H :    0.171178
  33 H :    0.287836
  34 H :    0.292715
  35 H :    0.292830
  36 H :    0.287708

  Mayer bond orders larger than 0.100000
B(  0-C ,  1-C ) :   0.9011 B(  0-C ,  2-N ) :   0.8626 B(  0-C ,  4-H ) :   0.9316
B(  0-C ,  6-H ) :   0.9514 B(  1-C ,  3-H ) :   0.9514 B(  1-C ,  5-N ) :   0.8626
B(  1-C ,  7-H ) :   0.9316 B(  2-N ,  8-Ru) :   0.3271 B(  2-N ,  9-H ) :   0.8387
B(  2-N , 11-H ) :   0.8426 B(  5-N ,  8-Ru) :   0.3271 B(  5-N , 10-H ) :   0.8387
B(  5-N , 12-H ) :   0.8426 B(  8-Ru, 15-N ) :   0.3259 B(  8-Ru, 18-N ) :   0.3286
B(  8-Ru, 27-N ) :   0.3286 B(  8-Ru, 30-N ) :   0.3259 B( 13-C , 14-C ) :   0.8974
B( 13-C , 15-N ) :   0.8628 B( 13-C , 16-H ) :   0.9330 B( 13-C , 17-H ) :   0.9496
B( 14-C , 18-N ) :   0.8624 B( 14-C , 19-H ) :   0.9310 B( 14-C , 20-H ) :   0.9516
B( 15-N , 22-H ) :   0.8370 B( 15-N , 23-H ) :   0.8411 B( 18-N , 21-H ) :   0.8378
B( 18-N , 24-H ) :   0.8426 B( 25-C , 26-C ) :   0.8974 B( 25-C , 30-N ) :   0.8628
B( 25-C , 31-H ) :   0.9330 B( 25-C , 32-H ) :   0.9496 B( 26-C , 27-N ) :   0.8624
B( 26-C , 28-H ) :   0.9310 B( 26-C , 29-H ) :   0.9516 B( 27-N , 34-H ) :   0.8378
B( 27-N , 36-H ) :   0.8426 B( 30-N , 33-H ) :   0.8411 B( 30-N , 35-H ) :   0.8370

Dispersion correction           -0.102374305
FINAL SINGLE POINT ENERGY      -666.104181169243

DIPOLE MOMENT
-------------
                                X             Y             Z
Electronic contribution:     -0.05071       0.00001      -0.00000
Nuclear contribution   :      0.04531      -0.00000       0.00000
                        -----------------------------------------
Total Dipole Moment    :     -0.00540       0.00000       0.00000
                        -----------------------------------------
Magnitude (a.u.)       :      0.00540
Magnitude (Debye)      :      0.01373

Dispersion correction in the Hessian             ... done   (      1.9 sec)

VIBRATIONAL FREQUENCIES
-----------------------

Scaling factor for frequencies =  1.000000000  (already applied!)

   0:         0.00 cm**-1
   1:         0.00 cm**-1
   2:         0.00 cm**-1
   3:         0.00 cm**-1
   4:         0.00 cm**-1
   5:         0.00 cm**-1
   6:        83.38 cm**-1
   7:        83.96 cm**-1
   8:       115.75 cm**-1
   9:       132.00 cm**-1
  10:       132.09 cm**-1
  11:       142.36 cm**-1
  12:       199.51 cm**-1
  13:       199.96 cm**-1
  14:       203.05 cm**-1
  15:       232.29 cm**-1
  16:       299.13 cm**-1
  17:       299.18 cm**-1
  18:       306.57 cm**-1
  19:       324.84 cm**-1
  20:       325.11 cm**-1
  21:       379.13 cm**-1
  22:       380.51 cm**-1
  23:       380.94 cm**-1
  24:       437.12 cm**-1
  25:       437.48 cm**-1
  26:       471.89 cm**-1
  27:       522.06 cm**-1
  28:       522.56 cm**-1
  29:       551.86 cm**-1
  30:       657.22 cm**-1
  31:       658.73 cm**-1
  32:       658.88 cm**-1
  33:       683.31 cm**-1
  34:       740.34 cm**-1
  35:       740.82 cm**-1
  36:       868.51 cm**-1
  37:       868.79 cm**-1
  38:       869.42 cm**-1
  39:       869.80 cm**-1
  40:       870.88 cm**-1
  41:       880.22 cm**-1
  42:       987.80 cm**-1
  43:       987.90 cm**-1
  44:       990.00 cm**-1
  45:       991.38 cm**-1
  46:       993.15 cm**-1
  47:       993.39 cm**-1
  48:      1042.81 cm**-1
  49:      1043.31 cm**-1
  50:      1046.04 cm**-1
  51:      1106.91 cm**-1
  52:      1107.94 cm**-1
  53:      1120.86 cm**-1
  54:      1140.49 cm**-1
  55:      1141.23 cm**-1
  56:      1160.10 cm**-1
  57:      1196.03 cm**-1
  58:      1196.19 cm**-1
  59:      1216.80 cm**-1
  60:      1301.57 cm**-1
  61:      1302.07 cm**-1
  62:      1306.80 cm**-1
  63:      1320.90 cm**-1
  64:      1321.38 cm**-1
  65:      1331.94 cm**-1
  66:      1348.45 cm**-1
  67:      1348.87 cm**-1
  68:      1350.00 cm**-1
  69:      1397.46 cm**-1
  70:      1398.05 cm**-1
  71:      1401.42 cm**-1
  72:      1432.73 cm**-1
  73:      1433.13 cm**-1
  74:      1436.91 cm**-1
  75:      1503.70 cm**-1
  76:      1503.78 cm**-1
  77:      1504.00 cm**-1
  78:      1504.82 cm**-1
  79:      1505.07 cm**-1
  80:      1505.11 cm**-1
  81:      1684.13 cm**-1
  82:      1691.04 cm**-1
  83:      1692.02 cm**-1
  84:      1695.75 cm**-1
  85:      1698.92 cm**-1
  86:      1700.23 cm**-1
  87:      3022.47 cm**-1
  88:      3022.51 cm**-1
  89:      3024.81 cm**-1
  90:      3025.80 cm**-1
  91:      3025.84 cm**-1
  92:      3027.26 cm**-1
  93:      3065.42 cm**-1
  94:      3065.55 cm**-1
  95:      3067.22 cm**-1
  96:      3077.08 cm**-1
  97:      3077.13 cm**-1
  98:      3079.23 cm**-1
  99:      3393.70 cm**-1
 100:      3393.82 cm**-1
 101:      3397.84 cm**-1
 102:      3398.01 cm**-1
 103:      3398.90 cm**-1
 104:      3399.11 cm**-1
 105:      3447.85 cm**-1
 106:      3447.96 cm**-1
 107:      3449.94 cm**-1
 108:      3450.06 cm**-1
 109:      3451.26 cm**-1
 110:      3453.31 cm**-1

IR SPECTRUM
-----------

 Mode    freq (cm**-1)   T**2         TX         TY         TZ
-------------------------------------------------------------------
   6:        83.38    0.001093  ( -0.000013  -0.032906   0.003238)
   7:        83.96    0.001881  ( -0.043365   0.000007  -0.000006)
   8:       115.75    1.410293  (  0.000003  -0.033759   1.187078)
   9:       132.00    0.152908  (  0.391034  -0.000244  -0.000040)
  10:       132.09    0.129974  ( -0.000269  -0.353927  -0.068628)
  11:       142.36    0.019867  ( -0.140950  -0.000008  -0.000001)
  12:       199.51    7.109448  ( -0.000247  -2.660305  -0.179513)
  13:       199.96    6.780372  ( -2.603915   0.000248   0.000087)
  14:       203.05    8.649680  (  0.000061  -0.188421   2.934992)
  15:       232.29    0.002406  ( -0.049056  -0.000007   0.000001)
  16:       299.13    5.169750  ( -0.001565   2.273508   0.030165)
  17:       299.18    5.429183  (  2.330060   0.001531   0.000018)
  18:       306.57    0.046473  ( -0.215576  -0.000075  -0.000002)
  19:       324.84   11.073780  ( -3.327729   0.001024  -0.000007)
  20:       325.11   11.358318  (  0.001004   3.370182  -0.013886)
  21:       379.13    1.772987  ( -0.000006   0.064287   1.329983)
  22:       380.51    0.289698  (  0.000012   0.463821  -0.273073)
  23:       380.94    0.262194  (  0.512049  -0.000012   0.000018)
  24:       437.12    2.915570  (  1.707504   0.000009   0.000001)
  25:       437.48    2.819627  (  0.000011  -1.679143   0.010290)
  26:       471.89    0.001465  ( -0.038273  -0.000002   0.000001)
  27:       522.06    2.862015  (  0.000157   1.691591  -0.023100)
  28:       522.56    2.753318  (  1.659312  -0.000164  -0.000001)
  29:       551.86    0.551526  (  0.000005  -0.052325   0.740802)
  30:       657.22    1.100380  (  0.000009   0.371276   0.981088)
  31:       658.73    0.933845  ( -0.000035   0.838336  -0.480663)
  32:       658.88    0.835898  ( -0.914275  -0.000033   0.000027)
  33:       683.31    0.005608  (  0.074888  -0.000001  -0.000001)
  34:       740.34   18.623255  (  0.000250   4.315263  -0.042001)
  35:       740.82   18.010321  ( -4.243857   0.000249  -0.000004)
  36:       868.51    5.469342  (  2.338662   0.000934  -0.000006)
  37:       868.79    5.803791  ( -0.000842   2.409067  -0.013712)
  38:       869.42    0.296302  ( -0.544337   0.000369   0.000005)
  39:       869.80    0.015442  (  0.000211   0.124242   0.002471)
  40:       870.88    0.018458  ( -0.135860  -0.000090  -0.000002)
  41:       880.22    0.215672  (  0.000015  -0.041193   0.462574)
  42:       987.80    7.495925  (  2.737868  -0.001744  -0.000241)
  43:       987.90    7.310363  ( -0.001827  -2.700611  -0.130612)
  44:       990.00    0.002446  (  0.049458  -0.000044   0.000176)
  45:       991.38   10.339750  (  0.000140  -0.240654   3.206530)
  46:       993.15    1.711673  (  0.000193   1.221506   0.468612)
  47:       993.39    1.462173  (  1.209203  -0.000288  -0.000105)
  48:      1042.81   65.769395  ( -8.109833  -0.000200  -0.000005)
  49:      1043.31   66.975354  ( -0.000203   8.183840  -0.010506)
  50:      1046.04    0.610034  (  0.781047  -0.000055  -0.000003)
  51:      1106.91    2.537459  (  0.000097   1.592895   0.012000)
  52:      1107.94    2.566136  (  1.601916  -0.000090  -0.000002)
  53:      1120.86    0.003110  (  0.000019  -0.021916   0.051283)
  54:      1140.49   44.874506  ( -6.698844   0.000120  -0.000000)
  55:      1141.23   45.225364  (  0.000118   6.724888   0.035220)
  56:      1160.10    0.007811  ( -0.088381  -0.000009   0.000002)
  57:      1196.03    3.674853  ( -0.000295  -1.916875  -0.021006)
  58:      1196.19    4.388290  ( -2.094825   0.000263   0.000002)
  59:      1216.80    6.501861  ( -0.000007  -0.058800   2.549197)
  60:      1301.57    0.098778  ( -0.314289  -0.000008   0.000001)
  61:      1302.07    0.102950  ( -0.000012   0.320471  -0.015773)
  62:      1306.80    0.000011  ( -0.003379   0.000002  -0.000001)
  63:      1320.90    8.395179  ( -2.897444  -0.000016   0.000004)
  64:      1321.38    8.254710  ( -0.000015   2.873094  -0.006475)
  65:      1331.94    0.010604  ( -0.102977  -0.000002  -0.000001)
  66:      1348.45    6.684837  ( -0.000063   2.581828   0.137840)
  67:      1348.87    7.024136  ( -2.650309  -0.000050  -0.000016)
  68:      1350.00    0.687183  ( -0.000061  -0.541806   0.627398)
  69:      1397.46    0.403905  ( -0.000022  -0.630936  -0.076321)
  70:      1398.05    0.422288  ( -0.649837   0.000034   0.000017)
  71:      1401.42    0.658877  ( -0.000002   0.038808  -0.810784)
  72:      1432.73    4.185949  (  2.045959  -0.000230   0.000012)
  73:      1433.13    4.190416  ( -0.000225  -2.047026   0.009951)
  74:      1436.91    0.022470  ( -0.149900  -0.000038   0.000004)
  75:      1503.70    4.278436  ( -2.068433   0.004288  -0.000036)
  76:      1503.78   28.708218  ( -0.001078  -5.357617   0.064490)
  77:      1504.00   28.034422  (  5.294754   0.000475  -0.000013)
  78:      1504.82    1.427982  (  1.194982   0.000566   0.000141)
  79:      1505.07    1.139664  ( -0.000172  -1.021110   0.311445)
  80:      1505.11    4.313578  (  0.000136  -2.032169  -0.428798)
  81:      1684.13  186.634371  (  0.000000  -0.056183 -13.661304)
  82:      1691.04    1.881411  (  1.371646   0.000039   0.000035)
  83:      1692.02    2.313833  ( -0.000036   1.421600   0.541190)
  84:      1695.75    0.033622  (  0.183364  -0.000016  -0.000038)
  85:      1698.92    5.691192  (  0.000042  -2.342715   0.450418)
  86:      1700.23    6.006636  ( -2.450844  -0.000038   0.000016)
  87:      3022.47    9.556044  ( -3.091005  -0.040854  -0.007903)
  88:      3022.51    8.262860  (  0.045227  -2.815879  -0.575884)
  89:      3024.81    9.579967  (  3.095149  -0.004466  -0.001437)
  90:      3025.80   10.394852  ( -3.223510   0.051006  -0.035144)
  91:      3025.84   16.075774  (  0.050908   3.343678  -2.212012)
  92:      3027.26   12.695054  ( -0.002880  -3.035901  -1.865033)
  93:      3065.42   14.410111  (  0.004315   3.787708  -0.251712)
  94:      3065.55    4.328160  (  2.080409  -0.007728   0.000629)
  95:      3067.22    7.959353  (  2.821232   0.000394   0.000401)
  96:      3077.08   19.056604  ( -0.054720   1.758941  -3.994964)
  97:      3077.13   13.025771  ( -3.608515  -0.026680   0.060684)
  98:      3079.23   16.332100  ( -0.000358   2.905554   2.808888)
  99:      3393.70    0.015934  (  0.126229   0.000006  -0.000103)
 100:      3393.82    1.113970  (  0.000015  -0.068177   1.053244)
 101:      3397.84    2.294319  ( -0.000023  -1.512509  -0.081460)
 102:      3398.01    0.851644  ( -0.922846   0.000022   0.000002)
 103:      3398.90    2.455359  (  1.566959  -0.000084  -0.000002)
 104:      3399.11    1.197479  (  0.000106   1.093504  -0.041575)
 105:      3447.85    6.200368  ( -2.490054   0.000011  -0.000003)
 106:      3447.96    3.758762  (  0.000015   1.915625  -0.298571)
 107:      3449.94    4.467811  ( -2.113720   0.000066  -0.000012)
 108:      3450.06    7.626954  (  0.000046   2.749028  -0.264197)
 109:      3451.26    0.629319  ( -0.793296  -0.000013   0.000026)
 110:      3453.31   11.207492  ( -0.000005  -0.352984  -3.329098)

--------------------------
THERMOCHEMISTRY AT 298.15K
--------------------------

Temperature         ... 298.15 K
Pressure            ... 1.00 atm
Total Mass          ... 281.37 AMU

Throughout the following assumptions are being made:
  (1) The electronic state is orbitally nondegenerate
  (2) There are no thermally accessible electronically excited states
  (3) Hindered rotations indicated by low frequency modes are not
      treated as such but are treated as vibrations and this may
      cause some error
  (4) All equations used are the standard statistical mechanics
      equations for an ideal gas
  (5) All vibrations are strictly harmonic

freq.      83.38  E(vib)   ...       0.48
freq.      83.96  E(vib)   ...       0.48
freq.     115.75  E(vib)   ...       0.44
freq.     132.00  E(vib)   ...       0.42
freq.     132.09  E(vib)   ...       0.42
freq.     142.36  E(vib)   ...       0.41
freq.     199.51  E(vib)   ...       0.35
freq.     199.96  E(vib)   ...       0.35
freq.     203.05  E(vib)   ...       0.35
freq.     232.29  E(vib)   ...       0.32
freq.     299.13  E(vib)   ...       0.26
freq.     299.18  E(vib)   ...       0.26
freq.     306.57  E(vib)   ...       0.26
freq.     324.84  E(vib)   ...       0.24
freq.     325.11  E(vib)   ...       0.24
freq.     379.13  E(vib)   ...       0.21
freq.     380.51  E(vib)   ...       0.21
freq.     380.94  E(vib)   ...       0.21
freq.     437.12  E(vib)   ...       0.17
freq.     437.48  E(vib)   ...       0.17
freq.     471.89  E(vib)   ...       0.15
freq.     522.06  E(vib)   ...       0.13
freq.     522.56  E(vib)   ...       0.13
freq.     551.86  E(vib)   ...       0.12
freq.     657.22  E(vib)   ...       0.08
freq.     658.73  E(vib)   ...       0.08
freq.     658.88  E(vib)   ...       0.08
freq.     683.31  E(vib)   ...       0.08
freq.     740.34  E(vib)   ...       0.06
freq.     740.82  E(vib)   ...       0.06
freq.     868.51  E(vib)   ...       0.04
freq.     868.79  E(vib)   ...       0.04
freq.     869.42  E(vib)   ...       0.04
freq.     869.80  E(vib)   ...       0.04
freq.     870.88  E(vib)   ...       0.04
freq.     880.22  E(vib)   ...       0.04
freq.     987.80  E(vib)   ...       0.02
freq.     987.90  E(vib)   ...       0.02
freq.     990.00  E(vib)   ...       0.02
freq.     991.38  E(vib)   ...       0.02
freq.     993.15  E(vib)   ...       0.02
freq.     993.39  E(vib)   ...       0.02
freq.    1042.81  E(vib)   ...       0.02
freq.    1043.31  E(vib)   ...       0.02
freq.    1046.04  E(vib)   ...       0.02
freq.    1106.91  E(vib)   ...       0.02
freq.    1107.94  E(vib)   ...       0.02
freq.    1120.86  E(vib)   ...       0.01
freq.    1140.49  E(vib)   ...       0.01
freq.    1141.23  E(vib)   ...       0.01
freq.    1160.10  E(vib)   ...       0.01
freq.    1196.03  E(vib)   ...       0.01
freq.    1196.19  E(vib)   ...       0.01
freq.    1216.80  E(vib)   ...       0.01
freq.    1301.57  E(vib)   ...       0.01
freq.    1302.07  E(vib)   ...       0.01
freq.    1306.80  E(vib)   ...       0.01
freq.    1320.90  E(vib)   ...       0.01
freq.    1321.38  E(vib)   ...       0.01
freq.    1331.94  E(vib)   ...       0.01
freq.    1348.45  E(vib)   ...       0.01
freq.    1348.87  E(vib)   ...       0.01
freq.    1350.00  E(vib)   ...       0.01
freq.    1397.46  E(vib)   ...       0.00
freq.    1398.05  E(vib)   ...       0.00
freq.    1401.42  E(vib)   ...       0.00
freq.    1432.73  E(vib)   ...       0.00
freq.    1433.13  E(vib)   ...       0.00
freq.    1436.91  E(vib)   ...       0.00
freq.    1503.70  E(vib)   ...       0.00
freq.    1503.78  E(vib)   ...       0.00
freq.    1504.00  E(vib)   ...       0.00
freq.    1504.82  E(vib)   ...       0.00
freq.    1505.07  E(vib)   ...       0.00
freq.    1505.11  E(vib)   ...       0.00
freq.    1684.13  E(vib)   ...       0.00
freq.    1691.04  E(vib)   ...       0.00
freq.    1692.02  E(vib)   ...       0.00
freq.    1695.75  E(vib)   ...       0.00
freq.    1698.92  E(vib)   ...       0.00
freq.    1700.23  E(vib)   ...       0.00
freq.    3022.47  E(vib)   ...       0.00
freq.    3022.51  E(vib)   ...       0.00
freq.    3024.81  E(vib)   ...       0.00
freq.    3025.80  E(vib)   ...       0.00
freq.    3025.84  E(vib)   ...       0.00
freq.    3027.26  E(vib)   ...       0.00
freq.    3065.42  E(vib)   ...       0.00
freq.    3065.55  E(vib)   ...       0.00
freq.    3067.22  E(vib)   ...       0.00
freq.    3077.08  E(vib)   ...       0.00
freq.    3077.13  E(vib)   ...       0.00
freq.    3079.23  E(vib)   ...       0.00
freq.    3393.70  E(vib)   ...       0.00
freq.    3393.82  E(vib)   ...       0.00
freq.    3397.84  E(vib)   ...       0.00
freq.    3398.01  E(vib)   ...       0.00
freq.    3398.90  E(vib)   ...       0.00
freq.    3399.11  E(vib)   ...       0.00
freq.    3447.85  E(vib)   ...       0.00
freq.    3447.96  E(vib)   ...       0.00
freq.    3449.94  E(vib)   ...       0.00
freq.    3450.06  E(vib)   ...       0.00
freq.    3451.26  E(vib)   ...       0.00
freq.    3453.31  E(vib)   ...       0.00

------------
INNER ENERGY
------------

The inner energy is: U= E(el) + E(ZPE) + E(vib) + E(rot) + E(trans)
    E(el)   - is the total energy from the electronic structure calculation
              = E(kin-el) + E(nuc-el) + E(el-el) + E(nuc-nuc)
    E(ZPE)  - the the zero temperature vibrational energy from the frequency calculation
    E(vib)  - the the finite temperature correction to E(ZPE) due to population
              of excited vibrational states
    E(rot)  - is the rotational thermal energy
    E(trans)- is the translational thermal energy

Summary of contributions to the inner energy U:
Electronic energy                ...   -666.10418117 Eh
Zero point energy                ...      0.34918449 Eh     219.12 kcal/mol
Thermal vibrational correction   ...      0.01260442 Eh       7.91 kcal/mol
Thermal rotational correction    ...      0.00141627 Eh       0.89 kcal/mol
Thermal translational correction ...      0.00141627 Eh       0.89 kcal/mol
-----------------------------------------------------------------------
Total thermal energy                   -665.73955972 Eh

Summary of corrections to the electronic energy:
(perhaps to be used in another calculation)
Total thermal correction                  0.01543696 Eh       9.69 kcal/mol
Non-thermal (ZPE) correction              0.34918449 Eh     219.12 kcal/mol
-----------------------------------------------------------------------
Total correction                          0.36462145 Eh     228.80 kcal/mol

--------
ENTHALPY
--------

The enthalpy is H = U + kB*T
                kB is Boltzmann's constant
Total free energy                 ...   -665.73955972 Eh

Rotational constants in cm-1:     0.023515     0.023514     0.015154

                             ****ORCA TERMINATED NORMALLY****
TOTAL RUN TIME: 0 days 0 hours 51 minutes 58 seconds 672 msec
