                         Program Version 4.2.1 -  RELEASE  -
|  1> ! B97-3c Opt Freq TightOpt TightSCF
|  2>
|  3> %pal
|  4>  nprocs 12
|  5> end
|  6>
|  7> *xyz +3 1
|  8> Co       0.000000000      0.000000000      0.000000000
|  9> N       -0.131259695     -1.821066552     -1.153037228
| 10> N       -0.131259695      1.821066552      1.153037228
| 11> N       -1.511460048      1.024207506     -1.153037228
| 12> N        1.642719743      0.796859045     -1.153037228
| 13> N       -1.511460048     -1.024207506      1.153037228
| 14> N        1.642719743     -0.796859045      1.153037228
| 15> C       -0.880929613     -2.869131817     -0.362457061
| 16> H        0.779332409     -2.214283110     -1.458607081
| 17> C       -2.044276234     -2.197473332      0.362457061
| 18> H       -0.173983496     -3.346322577      0.353949598
| 19> H       -1.245222955     -3.682512406     -1.032136434
| 20> H       -2.566537816     -2.919650916      1.032136434
| 21> H       -2.811008612     -1.823835416     -0.353949598
| 22> H       -2.307291629     -0.432219891      1.458607081
| 23> C        2.925205847     -0.671658485      0.362457061
| 24> H        1.527959220     -1.782063219      1.458607081
| 25> C        2.925205847      0.671658485     -0.362457061
| 26> H        2.984992109     -1.522487161     -0.353949598
| 27> H        3.811760771     -0.762861491      1.032136434
| 28> H        3.811760771      0.762861491     -1.032136434
| 29> H        2.984992109      1.522487161      0.353949598
| 30> H        1.527959220      1.782063219     -1.458607081
| 31> C       -2.044276234      2.197473332     -0.362457061
| 32> H       -2.307291629      0.432219891     -1.458607081
| 33> C       -0.880929613      2.869131817      0.362457061
| 34> H       -2.811008612      1.823835416      0.353949598
| 35> H       -2.566537816      2.919650916     -1.032136434
| 36> H        0.779332409      2.214283110      1.458607081
| 37> H       -1.245222955      3.682512406      1.032136434
| 38> H       -0.173983496      3.346322577     -0.353949598
| 39> H       -0.636747356     -1.647543423     -2.044917606
| 40> H       -1.108440780     -1.375211097      2.044917606
| 41> H        1.745188136      0.272332325     -2.044917606
| 42> H        1.745188136     -0.272332325      2.044917606
| 43> H       -0.636747356      1.647543423      2.044917606
| 44> H       -1.108440780      1.375211097     -2.044917606
| 45> *
| 46>
| 47>                          ****END OF INPUT****
 Total Charge           Charge          ....    3
 Multiplicity           Mult            ....    1
 Number of Electrons    NEL             ....  126
Dispersion correction           -0.092979768
FINAL SINGLE POINT ENERGY     -1953.586483361850
Dispersion correction            ... done
Dispersion correction           -0.095659929
FINAL SINGLE POINT ENERGY     -1953.604831100936
Dispersion correction            ... done
Dispersion correction           -0.098795470
FINAL SINGLE POINT ENERGY     -1953.612953113773
Dispersion correction            ... done
FINAL SINGLE POINT ENERGY     -1953.615143961127
FINAL SINGLE POINT ENERGY     -1953.616528881176
FINAL SINGLE POINT ENERGY     -1953.616883077972
FINAL SINGLE POINT ENERGY     -1953.617009478475
FINAL SINGLE POINT ENERGY     -1953.617034305818
FINAL SINGLE POINT ENERGY     -1953.617043206699
Dispersion correction           -0.099609367
FINAL SINGLE POINT ENERGY     -1953.617044622103
Dispersion correction            ... done
Dispersion correction           -0.099618184
FINAL SINGLE POINT ENERGY     -1953.617045591060
Dispersion correction            ... done
                    ***********************HURRAY********************

CARTESIAN COORDINATES (ANGSTROEM)
---------------------------------
  Co    -0.003375    0.000000    0.000000
  N     -0.081028   -1.673341   -1.099184
  N     -0.081028    1.673342    1.099184
  N     -1.411058    0.908988   -1.095738
  N      1.487228    0.764867   -1.098761
  N     -1.411058   -0.908988    1.095738
  N      1.487229   -0.764867    1.098761
  C     -0.820543   -2.746069   -0.359361
  H      0.827126   -2.038001   -1.376761
  C     -1.964284   -2.088934    0.356880
  H     -0.132122   -3.220856    0.337269
  H     -1.163249   -3.520912   -1.042991
  H     -2.460380   -2.775638    1.040976
  H     -2.721008   -1.736319   -0.341221
  H     -2.183959   -0.308964    1.374011
  C      2.787942   -0.657185    0.362698
  H      1.352230   -1.734018    1.376534
  C      2.787942    0.657184   -0.362698
  H      2.864239   -1.494772   -0.327837
  H      3.628445   -0.737331    1.050025
  H      3.628445    0.737330   -1.050025
  H      2.864239    1.494772    0.327837
  H      1.352231    1.734018   -1.376533
  C     -1.964284    2.088934   -0.356880
  H     -2.183959    0.308964   -1.374011
  C     -0.820544    2.746069    0.359361
  H     -2.721008    1.736319    0.341221
  H     -2.460380    2.775638   -1.040976
  H      0.827126    2.038001    1.376761
  H     -1.163249    3.520912    1.042990
  H     -0.132122    3.220856   -0.337269
  H     -0.562000   -1.500495   -1.979417
  H     -1.020087   -1.237477    1.976244
  H      1.574193    0.262119   -1.979452
  H      1.574194   -0.262119    1.979452
  H     -0.562000    1.500495    1.979417
  H     -1.020086    1.237477   -1.976244

 Multiplicity           Mult            ....    1
 Number of Electrons    NEL             ....  126
 Basis Dimension        Dim             ....  333

ORBITAL ENERGIES
----------------

  NO   OCC          E(Eh)            E(eV)
   0   2.0000    -276.442108     -7522.3722
   1   2.0000     -32.844741      -893.7508
   2   2.0000     -28.602306      -778.3083
   3   2.0000     -28.602267      -778.3072
   4   2.0000     -28.600604      -778.2620
   5   2.0000     -14.471218      -393.7819
   6   2.0000     -14.471218      -393.7819
   7   2.0000     -14.471180      -393.7808
   8   2.0000     -14.471179      -393.7808
   9   2.0000     -14.471005      -393.7761
  10   2.0000     -14.471000      -393.7759
  11   2.0000     -10.343083      -281.4496
  12   2.0000     -10.343080      -281.4495
  13   2.0000     -10.342936      -281.4456
  14   2.0000     -10.342931      -281.4455
  15   2.0000     -10.342808      -281.4421
  16   2.0000     -10.342668      -281.4383
  17   2.0000      -3.997654      -108.7817
  18   2.0000      -2.724993       -74.1508
  19   2.0000      -2.724956       -74.1498
  20   2.0000      -2.721534       -74.0567
  21   2.0000      -1.309460       -35.6322
  22   2.0000      -1.294960       -35.2377
  23   2.0000      -1.294765       -35.2323
  24   2.0000      -1.271686       -34.6043
  25   2.0000      -1.268595       -34.5202
  26   2.0000      -1.268468       -34.5168
  27   2.0000      -1.099985       -29.9321
  28   2.0000      -1.096597       -29.8399
  29   2.0000      -1.096486       -29.8369
  30   2.0000      -0.991817       -26.9887
  31   2.0000      -0.982216       -26.7275
  32   2.0000      -0.981976       -26.7209
  33   2.0000      -0.927639       -25.2423
  34   2.0000      -0.927627       -25.2420
  35   2.0000      -0.913494       -24.8574
  36   2.0000      -0.908198       -24.7133
  37   2.0000      -0.908182       -24.7129
  38   2.0000      -0.900059       -24.4918
  39   2.0000      -0.896593       -24.3975
  40   2.0000      -0.886133       -24.1129
  41   2.0000      -0.886046       -24.1105
  42   2.0000      -0.832178       -22.6447
  43   2.0000      -0.827600       -22.5201
  44   2.0000      -0.822759       -22.3884
  45   2.0000      -0.822487       -22.3810
  46   2.0000      -0.810639       -22.0586
  47   2.0000      -0.810554       -22.0563
  48   2.0000      -0.802670       -21.8418
  49   2.0000      -0.789971       -21.4962
  50   2.0000      -0.789918       -21.4948
  51   2.0000      -0.746458       -20.3121
  52   2.0000      -0.746409       -20.3108
  53   2.0000      -0.742978       -20.2175
  54   2.0000      -0.740550       -20.1514
  55   2.0000      -0.740213       -20.1422
  56   2.0000      -0.730236       -19.8707
  57   2.0000      -0.722133       -19.6502
  58   2.0000      -0.708054       -19.2671
  59   2.0000      -0.707982       -19.2652
  60   2.0000      -0.645773       -17.5724
  61   2.0000      -0.645766       -17.5722
  62   2.0000      -0.643449       -17.5091
  63   0.0000      -0.546530       -14.8718
  64   0.0000      -0.546428       -14.8691
  65   0.0000      -0.423728       -11.5302
  66   0.0000      -0.398802       -10.8520
  67   0.0000      -0.390132       -10.6160

MULLIKEN ATOMIC CHARGES
-----------------------
   0 Co:    0.438962
   1 N :   -0.600781
   2 N :   -0.600781
   3 N :   -0.595052
   4 N :   -0.596474
   5 N :   -0.595052
   6 N :   -0.596475
   7 C :   -0.368569
   8 H :    0.403117
   9 C :   -0.364364
  10 H :    0.280280
  11 H :    0.309080
  12 H :    0.308391
  13 H :    0.279785
  14 H :    0.402452
  15 C :   -0.361505
  16 H :    0.401120
  17 C :   -0.361505
  18 H :    0.278907
  19 H :    0.307165
  20 H :    0.307165
  21 H :    0.278907
  22 H :    0.401120
  23 C :   -0.364364
  24 H :    0.402452
  25 C :   -0.368569
  26 H :    0.279785
  27 H :    0.308391
  28 H :    0.403117
  29 H :    0.309080
  30 H :    0.280280
  31 H :    0.399916
  32 H :    0.398978
  33 H :    0.398075
  34 H :    0.398075
  35 H :    0.399916
  36 H :    0.398978
Sum of atomic charges:    3.0000000

LOEWDIN ATOMIC CHARGES
----------------------
   0 Co:    0.196588
   1 N :   -0.336482
   2 N :   -0.336482
   3 N :   -0.335491
   4 N :   -0.335532
   5 N :   -0.335491
   6 N :   -0.335532
   7 C :   -0.199011
   8 H :    0.299556
   9 C :   -0.199044
  10 H :    0.183179
  11 H :    0.217122
  12 H :    0.217119
  13 H :    0.183337
  14 H :    0.299493
  15 C :   -0.199166
  16 H :    0.299267
  17 C :   -0.199166
  18 H :    0.183469
  19 H :    0.216973
  20 H :    0.216973
  21 H :    0.183469
  22 H :    0.299267
  23 C :   -0.199044
  24 H :    0.299493
  25 C :   -0.199011
  26 H :    0.183337
  27 H :    0.217119
  28 H :    0.299556
  29 H :    0.217122
  30 H :    0.183179
  31 H :    0.302532
  32 H :    0.302266
  33 H :    0.302119
  34 H :    0.302119
  35 H :    0.302532
  36 H :    0.302266

  Mayer bond orders larger than 0.100000
B(  0-Co,  1-N ) :   0.5774 B(  0-Co,  2-N ) :   0.5774 B(  0-Co,  3-N ) :   0.5784
B(  0-Co,  4-N ) :   0.5794 B(  0-Co,  5-N ) :   0.5784 B(  0-Co,  6-N ) :   0.5794
B(  1-N ,  7-C ) :   0.8293 B(  1-N ,  8-H ) :   0.8156 B(  1-N , 31-H ) :   0.8102
B(  2-N , 25-C ) :   0.8293 B(  2-N , 28-H ) :   0.8156 B(  2-N , 35-H ) :   0.8102
B(  3-N , 23-C ) :   0.8284 B(  3-N , 24-H ) :   0.8165 B(  3-N , 36-H ) :   0.8111
B(  4-N , 17-C ) :   0.8299 B(  4-N , 22-H ) :   0.8173 B(  4-N , 33-H ) :   0.8120
B(  5-N ,  9-C ) :   0.8284 B(  5-N , 14-H ) :   0.8165 B(  5-N , 32-H ) :   0.8111
B(  6-N , 15-C ) :   0.8299 B(  6-N , 16-H ) :   0.8173 B(  6-N , 34-H ) :   0.8120
B(  7-C ,  9-C ) :   0.8513 B(  7-C , 10-H ) :   0.9361 B(  7-C , 11-H ) :   0.9058
B(  9-C , 12-H ) :   0.9046 B(  9-C , 13-H ) :   0.9378 B( 15-C , 17-C ) :   0.8529
B( 15-C , 18-H ) :   0.9377 B( 15-C , 19-H ) :   0.9055 B( 17-C , 20-H ) :   0.9055
B( 17-C , 21-H ) :   0.9377 B( 23-C , 25-C ) :   0.8513 B( 23-C , 26-H ) :   0.9378
B( 23-C , 27-H ) :   0.9046 B( 25-C , 29-H ) :   0.9058 B( 25-C , 30-H ) :   0.9361

Dispersion correction           -0.099617186
FINAL SINGLE POINT ENERGY     -1953.617045998745

DIPOLE MOMENT
-------------
                                X             Y             Z
Electronic contribution:     -0.04120       0.00000       0.00000
Nuclear contribution   :      0.04092      -0.00000      -0.00000
                        -----------------------------------------
Total Dipole Moment    :     -0.00028       0.00000      -0.00000
                        -----------------------------------------
Magnitude (a.u.)       :      0.00028
Magnitude (Debye)      :      0.00072

Dispersion correction in the Hessian             ... done   (      1.6 sec)

VIBRATIONAL FREQUENCIES
-----------------------

Scaling factor for frequencies =  1.000000000  (already applied!)

   0:         0.00 cm**-1
   1:         0.00 cm**-1
   2:         0.00 cm**-1
   3:         0.00 cm**-1
   4:         0.00 cm**-1
   5:         0.00 cm**-1
   6:        96.34 cm**-1
   7:        99.00 cm**-1
   8:       141.20 cm**-1
   9:       150.05 cm**-1
  10:       151.20 cm**-1
  11:       191.94 cm**-1
  12:       241.49 cm**-1
  13:       242.14 cm**-1
  14:       248.72 cm**-1
  15:       250.17 cm**-1
  16:       307.41 cm**-1
  17:       311.40 cm**-1
  18:       311.89 cm**-1
  19:       333.62 cm**-1
  20:       334.08 cm**-1
  21:       397.79 cm**-1
  22:       398.44 cm**-1
  23:       408.48 cm**-1
  24:       445.98 cm**-1
  25:       446.00 cm**-1
  26:       470.81 cm**-1
  27:       543.51 cm**-1
  28:       545.49 cm**-1
  29:       580.33 cm**-1
  30:       679.59 cm**-1
  31:       680.60 cm**-1
  32:       688.53 cm**-1
  33:       704.08 cm**-1
  34:       766.30 cm**-1
  35:       767.87 cm**-1
  36:       862.50 cm**-1
  37:       862.75 cm**-1
  38:       873.47 cm**-1
  39:       873.73 cm**-1
  40:       875.24 cm**-1
  41:       876.26 cm**-1
  42:       972.64 cm**-1
  43:       973.42 cm**-1
  44:       973.48 cm**-1
  45:       998.12 cm**-1
  46:       998.63 cm**-1
  47:      1005.41 cm**-1
  48:      1042.02 cm**-1
  49:      1042.33 cm**-1
  50:      1045.32 cm**-1
  51:      1117.35 cm**-1
  52:      1117.48 cm**-1
  53:      1129.93 cm**-1
  54:      1162.84 cm**-1
  55:      1163.12 cm**-1
  56:      1189.14 cm**-1
  57:      1216.65 cm**-1
  58:      1216.87 cm**-1
  59:      1248.24 cm**-1
  60:      1293.42 cm**-1
  61:      1293.48 cm**-1
  62:      1308.92 cm**-1
  63:      1320.36 cm**-1
  64:      1320.85 cm**-1
  65:      1339.39 cm**-1
  66:      1339.79 cm**-1
  67:      1344.64 cm**-1
  68:      1348.04 cm**-1
  69:      1397.09 cm**-1
  70:      1397.29 cm**-1
  71:      1405.02 cm**-1
  72:      1436.56 cm**-1
  73:      1436.76 cm**-1
  74:      1441.41 cm**-1
  75:      1505.73 cm**-1
  76:      1505.99 cm**-1
  77:      1506.77 cm**-1
  78:      1507.25 cm**-1
  79:      1508.10 cm**-1
  80:      1509.18 cm**-1
  81:      1674.47 cm**-1
  82:      1687.67 cm**-1
  83:      1688.37 cm**-1
  84:      1691.42 cm**-1
  85:      1699.45 cm**-1
  86:      1700.20 cm**-1
  87:      3037.68 cm**-1
  88:      3037.85 cm**-1
  89:      3039.03 cm**-1
  90:      3042.93 cm**-1
  91:      3043.18 cm**-1
  92:      3044.08 cm**-1
  93:      3083.02 cm**-1
  94:      3083.21 cm**-1
  95:      3083.74 cm**-1
  96:      3094.77 cm**-1
  97:      3094.88 cm**-1
  98:      3095.60 cm**-1
  99:      3403.67 cm**-1
 100:      3404.38 cm**-1
 101:      3404.54 cm**-1
 102:      3405.25 cm**-1
 103:      3405.31 cm**-1
 104:      3405.49 cm**-1
 105:      3461.78 cm**-1
 106:      3462.40 cm**-1
 107:      3462.89 cm**-1
 108:      3463.01 cm**-1
 109:      3463.61 cm**-1
 110:      3463.68 cm**-1

IR SPECTRUM
-----------

 Mode    freq (cm**-1)   T**2         TX         TY         TZ
-------------------------------------------------------------------
   6:        96.34    0.571856  ( -0.756212  -0.000007   0.000000)
   7:        99.00    0.528001  ( -0.000006   0.726626  -0.004098)
   8:       141.20    0.015081  ( -0.000005  -0.070494  -0.100557)
   9:       150.05    0.130681  ( -0.000001  -0.361350  -0.010342)
  10:       151.20    0.117720  ( -0.343103  -0.000000  -0.000000)
  11:       191.94    0.003213  ( -0.056684  -0.000002  -0.000001)
  12:       241.49    4.189369  (  2.046795  -0.000036  -0.000002)
  13:       242.14    4.234499  ( -0.000035  -2.055834  -0.089693)
  14:       248.72    5.938034  ( -0.000004  -0.058499   2.436106)
  15:       250.17    0.007623  ( -0.087310   0.000007  -0.000061)
  16:       307.41    0.010560  ( -0.102762  -0.000012   0.000001)
  17:       311.40    0.215968  (  0.000002   0.464596   0.010861)
  18:       311.89    0.169008  ( -0.411106   0.000002  -0.000002)
  19:       333.62    8.940623  (  0.000092   2.990083   0.004914)
  20:       334.08    9.296134  ( -3.048956   0.000089   0.000001)
  21:       397.79    1.481450  ( -0.000010  -1.216628  -0.035574)
  22:       398.44    1.525090  (  1.234945  -0.000012  -0.000001)
  23:       408.48    0.881149  (  0.000004  -0.056470   0.936996)
  24:       445.98    3.192390  ( -0.000309   1.786666  -0.014683)
  25:       446.00    3.076025  ( -1.753860  -0.000318   0.000002)
  26:       470.81    0.000044  (  0.006646  -0.000003  -0.000004)
  27:       543.51    3.285815  (  1.812682   0.000012  -0.000001)
  28:       545.49    3.274066  ( -0.000014   1.808542  -0.056941)
  29:       580.33    1.660323  ( -0.000001   0.109755   1.283852)
  30:       679.59    2.840600  ( -1.685408   0.000044   0.000003)
  31:       680.60    2.913806  ( -0.000045  -1.704902  -0.084348)
  32:       688.53    1.568404  ( -0.000001  -0.072986   1.250231)
  33:       704.08    0.014585  ( -0.120767  -0.000005  -0.000000)
  34:       766.30   15.753199  (  0.000070   3.968977  -0.020404)
  35:       767.87   15.618225  ( -3.951990   0.000073  -0.000002)
  36:       862.50    4.858139  (  2.204119   0.000007   0.000001)
  37:       862.75    4.624173  (  0.000013  -2.150386   0.003670)
  38:       873.47    4.560588  (  2.135553  -0.000051   0.000003)
  39:       873.73    4.690249  ( -0.000056  -2.165466   0.031747)
  40:       875.24    0.088727  (  0.000012  -0.157402  -0.252886)
  41:       876.26    0.019487  (  0.139595   0.000007   0.000001)
  42:       972.64   15.823697  (  0.000007   0.029942  -3.977788)
  43:       973.42    0.132593  ( -0.364133  -0.000024  -0.000031)
  44:       973.48    0.116125  ( -0.000016   0.340373  -0.016454)
  45:       998.12    8.981689  ( -0.000171   2.996911  -0.014544)
  46:       998.63    8.395986  ( -2.897583  -0.000190  -0.000002)
  47:      1005.41    0.019508  ( -0.139672   0.000018  -0.000002)
  48:      1042.02   54.194627  (  0.000354  -7.361694  -0.009708)
  49:      1042.33   54.130684  (  7.357356   0.000351  -0.000001)
  50:      1045.32    0.433499  (  0.658407  -0.000036  -0.000002)
  51:      1117.35    1.994921  (  0.000078   1.412219  -0.023648)
  52:      1117.48    2.001903  ( -1.414886   0.000076  -0.000002)
  53:      1129.93    0.191394  (  0.000022   0.006485  -0.437438)
  54:      1162.84   40.419387  (  6.357624  -0.001537  -0.000006)
  55:      1163.12   40.983927  ( -0.001525  -6.401736  -0.041283)
  56:      1189.14    0.000606  ( -0.024613  -0.000017  -0.000002)
  57:      1216.65    8.330827  (  0.000907   2.885972  -0.044653)
  58:      1216.87    8.739055  ( -2.956189   0.000871  -0.000028)
  59:      1248.24   12.894083  (  0.000011   0.019267  -3.590781)
  60:      1293.42    1.247835  (  1.117066  -0.000317  -0.000010)
  61:      1293.48    1.149765  ( -0.000334  -1.071605  -0.037786)
  62:      1308.92    0.003643  (  0.060354  -0.000003   0.000000)
  63:      1320.36   11.430977  (  3.380973  -0.000047  -0.000003)
  64:      1320.85   11.294880  ( -0.000047  -3.360718  -0.021388)
  65:      1339.39   20.597464  ( -0.000006  -4.538436  -0.007902)
  66:      1339.79   20.572654  (  4.535709   0.000006  -0.000001)
  67:      1344.64    0.142680  (  0.000011  -0.264565   0.269602)
  68:      1348.04    0.001243  (  0.035260   0.000004   0.000001)
  69:      1397.09    0.317750  (  0.000002  -0.563088  -0.026110)
  70:      1397.29    0.289487  ( -0.538040   0.000003   0.000004)
  71:      1405.02   10.073356  (  0.000003  -0.011705  -3.173833)
  72:      1436.56    2.292177  (  1.513994  -0.000093   0.000000)
  73:      1436.76    2.119302  ( -0.000095  -1.455709   0.014647)
  74:      1441.41    0.005982  ( -0.077342  -0.000001   0.000000)
  75:      1505.73   51.026677  (  7.143296   0.000113  -0.000005)
  76:      1505.99   31.587839  (  0.000129  -5.615057   0.242842)
  77:      1506.77    0.000004  ( -0.002061  -0.000098  -0.000001)
  78:      1507.25   20.175395  ( -0.000004   4.487654   0.190678)
  79:      1508.10    4.456376  ( -0.000040  -2.108640  -0.100075)
  80:      1509.18    5.579462  (  2.362088  -0.000088  -0.000007)
  81:      1674.47  217.502844  (  0.000003  -0.015991  14.747969)
  82:      1687.67    6.093124  ( -2.468425  -0.000011   0.000015)
  83:      1688.37    5.888080  (  0.000004  -2.414470  -0.241689)
  84:      1691.42    0.141560  (  0.376244  -0.000011  -0.000014)
  85:      1699.45    2.888228  (  0.000004   1.669771  -0.316374)
  86:      1700.20    2.335263  (  1.528157  -0.000009  -0.000002)
  87:      3037.68    1.879551  ( -1.370967   0.000066   0.000005)
  88:      3037.85    7.173811  ( -0.000036  -2.677970   0.047843)
  89:      3039.03    5.209394  ( -2.282410   0.000014   0.000024)
  90:      3042.93    1.835290  (  1.354729   0.000027  -0.000118)
  91:      3043.18   12.567715  (  0.000033  -1.025806   3.393440)
  92:      3044.08   17.411225  (  0.000026   0.811203   4.093064)
  93:      3083.02   13.399673  ( -0.000139   3.659938   0.067306)
  94:      3083.21   10.978309  (  3.313353   0.000169   0.000011)
  95:      3083.74    3.008685  (  1.734556  -0.000010   0.000011)
  96:      3094.77    3.011125  ( -0.000229  -1.589413  -0.696340)
  97:      3094.88    8.036075  (  2.834797  -0.000130  -0.000056)
  98:      3095.60    6.284232  (  0.000019  -2.470466   0.425477)
  99:      3403.67  104.066116  (  0.000272   0.035367  10.201219)
 100:      3404.38   26.211351  ( -5.119702   0.000809   0.000780)
 101:      3404.54   22.872224  ( -0.000951  -4.659041  -1.079613)
 102:      3405.25    0.271051  (  0.520626   0.000015  -0.000240)
 103:      3405.31   10.768372  (  0.000049   2.596860  -2.006163)
 104:      3405.49    2.341010  (  1.530036  -0.000299   0.000242)
 105:      3461.78    9.204014  ( -3.033812  -0.000387   0.000388)
 106:      3462.40   13.919584  ( -0.000063   2.344830  -2.901957)
 107:      3462.89   20.219583  (  4.496619   0.000649   0.000003)
 108:      3463.01   19.098212  (  0.000646  -4.159313   1.341017)
 109:      3463.61   37.219933  (  0.001886  -5.708440  -2.152589)
 110:      3463.68   26.591082  ( -5.156654  -0.001827  -0.000808)

--------------------------
THERMOCHEMISTRY AT 298.15K
--------------------------

Temperature         ... 298.15 K
Pressure            ... 1.00 atm
Total Mass          ... 239.23 AMU

Throughout the following assumptions are being made:
  (1) The electronic state is orbitally nondegenerate
  (2) There are no thermally accessible electronically excited states
  (3) Hindered rotations indicated by low frequency modes are not
      treated as such but are treated as vibrations and this may
      cause some error
  (4) All equations used are the standard statistical mechanics
      equations for an ideal gas
  (5) All vibrations are strictly harmonic

freq.      96.34  E(vib)   ...       0.47
freq.      99.00  E(vib)   ...       0.46
freq.     141.20  E(vib)   ...       0.41
freq.     150.05  E(vib)   ...       0.40
freq.     151.20  E(vib)   ...       0.40
freq.     191.94  E(vib)   ...       0.36
freq.     241.49  E(vib)   ...       0.31
freq.     242.14  E(vib)   ...       0.31
freq.     248.72  E(vib)   ...       0.31
freq.     250.17  E(vib)   ...       0.31
freq.     307.41  E(vib)   ...       0.26
freq.     311.40  E(vib)   ...       0.25
freq.     311.89  E(vib)   ...       0.25
freq.     333.62  E(vib)   ...       0.24
freq.     334.08  E(vib)   ...       0.24
freq.     397.79  E(vib)   ...       0.20
freq.     398.44  E(vib)   ...       0.20
freq.     408.48  E(vib)   ...       0.19
freq.     445.98  E(vib)   ...       0.17
freq.     446.00  E(vib)   ...       0.17
freq.     470.81  E(vib)   ...       0.15
freq.     543.51  E(vib)   ...       0.12
freq.     545.49  E(vib)   ...       0.12
freq.     580.33  E(vib)   ...       0.11
freq.     679.59  E(vib)   ...       0.08
freq.     680.60  E(vib)   ...       0.08
freq.     688.53  E(vib)   ...       0.07
freq.     704.08  E(vib)   ...       0.07
freq.     766.30  E(vib)   ...       0.06
freq.     767.87  E(vib)   ...       0.06
freq.     862.50  E(vib)   ...       0.04
freq.     862.75  E(vib)   ...       0.04
freq.     873.47  E(vib)   ...       0.04
freq.     873.73  E(vib)   ...       0.04
freq.     875.24  E(vib)   ...       0.04
freq.     876.26  E(vib)   ...       0.04
freq.     972.64  E(vib)   ...       0.03
freq.     973.42  E(vib)   ...       0.03
freq.     973.48  E(vib)   ...       0.03
freq.     998.12  E(vib)   ...       0.02
freq.     998.63  E(vib)   ...       0.02
freq.    1005.41  E(vib)   ...       0.02
freq.    1042.02  E(vib)   ...       0.02
freq.    1042.33  E(vib)   ...       0.02
freq.    1045.32  E(vib)   ...       0.02
freq.    1117.35  E(vib)   ...       0.01
freq.    1117.48  E(vib)   ...       0.01
freq.    1129.93  E(vib)   ...       0.01
freq.    1162.84  E(vib)   ...       0.01
freq.    1163.12  E(vib)   ...       0.01
freq.    1189.14  E(vib)   ...       0.01
freq.    1216.65  E(vib)   ...       0.01
freq.    1216.87  E(vib)   ...       0.01
freq.    1248.24  E(vib)   ...       0.01
freq.    1293.42  E(vib)   ...       0.01
freq.    1293.48  E(vib)   ...       0.01
freq.    1308.92  E(vib)   ...       0.01
freq.    1320.36  E(vib)   ...       0.01
freq.    1320.85  E(vib)   ...       0.01
freq.    1339.39  E(vib)   ...       0.01
freq.    1339.79  E(vib)   ...       0.01
freq.    1344.64  E(vib)   ...       0.01
freq.    1348.04  E(vib)   ...       0.01
freq.    1397.09  E(vib)   ...       0.00
freq.    1397.29  E(vib)   ...       0.00
freq.    1405.02  E(vib)   ...       0.00
freq.    1436.56  E(vib)   ...       0.00
freq.    1436.76  E(vib)   ...       0.00
freq.    1441.41  E(vib)   ...       0.00
freq.    1505.73  E(vib)   ...       0.00
freq.    1505.99  E(vib)   ...       0.00
freq.    1506.77  E(vib)   ...       0.00
freq.    1507.25  E(vib)   ...       0.00
freq.    1508.10  E(vib)   ...       0.00
freq.    1509.18  E(vib)   ...       0.00
freq.    1674.47  E(vib)   ...       0.00
freq.    1687.67  E(vib)   ...       0.00
freq.    1688.37  E(vib)   ...       0.00
freq.    1691.42  E(vib)   ...       0.00
freq.    1699.45  E(vib)   ...       0.00
freq.    1700.20  E(vib)   ...       0.00
freq.    3037.68  E(vib)   ...       0.00
freq.    3037.85  E(vib)   ...       0.00
freq.    3039.03  E(vib)   ...       0.00
freq.    3042.93  E(vib)   ...       0.00
freq.    3043.18  E(vib)   ...       0.00
freq.    3044.08  E(vib)   ...       0.00
freq.    3083.02  E(vib)   ...       0.00
freq.    3083.21  E(vib)   ...       0.00
freq.    3083.74  E(vib)   ...       0.00
freq.    3094.77  E(vib)   ...       0.00
freq.    3094.88  E(vib)   ...       0.00
freq.    3095.60  E(vib)   ...       0.00
freq.    3403.67  E(vib)   ...       0.00
freq.    3404.38  E(vib)   ...       0.00
freq.    3404.54  E(vib)   ...       0.00
freq.    3405.25  E(vib)   ...       0.00
freq.    3405.31  E(vib)   ...       0.00
freq.    3405.49  E(vib)   ...       0.00
freq.    3461.78  E(vib)   ...       0.00
freq.    3462.40  E(vib)   ...       0.00
freq.    3462.89  E(vib)   ...       0.00
freq.    3463.01  E(vib)   ...       0.00
freq.    3463.61  E(vib)   ...       0.00
freq.    3463.68  E(vib)   ...       0.00

------------
INNER ENERGY
------------

The inner energy is: U= E(el) + E(ZPE) + E(vib) + E(rot) + E(trans)
    E(el)   - is the total energy from the electronic structure calculation
              = E(kin-el) + E(nuc-el) + E(el-el) + E(nuc-nuc)
    E(ZPE)  - the the zero temperature vibrational energy from the frequency calculation
    E(vib)  - the the finite temperature correction to E(ZPE) due to population
              of excited vibrational states
    E(rot)  - is the rotational thermal energy
    E(trans)- is the translational thermal energy

Summary of contributions to the inner energy U:
Electronic energy                ...  -1953.61704600 Eh
Zero point energy                ...      0.35166932 Eh     220.68 kcal/mol
Thermal vibrational correction   ...      0.01189075 Eh       7.46 kcal/mol
Thermal rotational correction    ...      0.00141627 Eh       0.89 kcal/mol
Thermal translational correction ...      0.00141627 Eh       0.89 kcal/mol
-----------------------------------------------------------------------
Total thermal energy                  -1953.25065339 Eh

Summary of corrections to the electronic energy:
(perhaps to be used in another calculation)
Total thermal correction                  0.01472329 Eh       9.24 kcal/mol
Non-thermal (ZPE) correction              0.35166932 Eh     220.68 kcal/mol
-----------------------------------------------------------------------
Total correction                          0.36639261 Eh     229.91 kcal/mol

--------
ENTHALPY
--------

The enthalpy is H = U + kB*T
                kB is Boltzmann's constant
Total free energy                 ...  -1953.25065339 Eh

Rotational constants in cm-1:     0.025468     0.025432     0.016548

                             ****ORCA TERMINATED NORMALLY****
TOTAL RUN TIME: 0 days 0 hours 18 minutes 32 seconds 515 msec
