                         Program Version 4.2.1 -  RELEASE  -
|  1> ! MP2 6-311G(d,p) Opt Freq TightOpt TightSCF NoFrozenCore
|  2>
|  3> %pal
|  4>  nprocs 2
|  5> end
|  6>
|  7> *xyz 0 1
|  8> C        0.000000000      0.000000000     -0.766336462
|  9> C        0.000000000      0.000000000      0.766336462
| 10> H       -0.504759430      0.874268978     -1.173606038
| 11> H       -0.504759430     -0.874268978     -1.173606038
| 12> H        1.009518860      0.000000000     -1.173606038
| 13> H       -0.504759430     -0.874268978      1.173606038
| 14> H       -0.504759430      0.874268978      1.173606038
| 15> H        1.009518860      0.000000000      1.173606038
| 16> *
| 17>
| 18>                          ****END OF INPUT****
 Total Charge           Charge          ....    0
 Multiplicity           Mult            ....    1
 Number of Electrons    NEL             ....   18
MP2 TOTAL ENERGY:      -79.603387295 Eh
FINAL SINGLE POINT ENERGY       -79.603387294864
MP2 TOTAL ENERGY:      -79.603467348 Eh
FINAL SINGLE POINT ENERGY       -79.603467348005
MP2 TOTAL ENERGY:      -79.603475632 Eh
FINAL SINGLE POINT ENERGY       -79.603475631799
MP2 TOTAL ENERGY:      -79.603479083 Eh
FINAL SINGLE POINT ENERGY       -79.603479083208
                    ***********************HURRAY********************

CARTESIAN COORDINATES (ANGSTROEM)
---------------------------------
  C     -0.000000    0.000000   -0.770000
  C     -0.000000   -0.000000    0.770000
  H     -0.507471    0.878966   -1.172855
  H     -0.507471   -0.878966   -1.172855
  H      1.014942   -0.000000   -1.172855
  H     -0.507471   -0.878966    1.172855
  H     -0.507471    0.878966    1.172855
  H      1.014942    0.000000    1.172855

 Multiplicity           Mult            ....    1
 Number of Electrons    NEL             ....   18
 Basis Dimension        Dim             ....   72

ORBITAL ENERGIES
----------------

  NO   OCC          E(Eh)            E(eV)
   0   2.0000     -11.212318      -305.1027
   1   2.0000     -11.211753      -305.0873
   2   2.0000      -1.013926       -27.5903
   3   2.0000      -0.843410       -22.9504
   4   2.0000      -0.594958       -16.1896
   5   2.0000      -0.594958       -16.1896
   6   2.0000      -0.508758       -13.8440
   7   2.0000      -0.484452       -13.1826
   8   2.0000      -0.484452       -13.1826
   9   0.0000       0.158887         4.3235
  10   0.0000       0.197641         5.3781
  11   0.0000       0.206525         5.6198
  12   0.0000       0.206525         5.6198
  13   0.0000       0.278561         7.5800

MULLIKEN ATOMIC CHARGES
-----------------------
   0 C :   -0.327527
   1 C :   -0.327527
   2 H :    0.109176
   3 H :    0.109176
   4 H :    0.109176
   5 H :    0.109176
   6 H :    0.109176
   7 H :    0.109176
Sum of atomic charges:   -0.0000000

LOEWDIN ATOMIC CHARGES
----------------------
   0 C :   -0.017189
   1 C :   -0.017189
   2 H :    0.005730
   3 H :    0.005730
   4 H :    0.005730
   5 H :    0.005730
   6 H :    0.005730
   7 H :    0.005730

  Mayer bond orders larger than 0.100000
B(  0-C ,  1-C ) :   0.9172 B(  0-C ,  2-H ) :   0.9494 B(  0-C ,  3-H ) :   0.9494
B(  0-C ,  4-H ) :   0.9494 B(  1-C ,  5-H ) :   0.9494 B(  1-C ,  6-H ) :   0.9494
B(  1-C ,  7-H ) :   0.9494

MP2 TOTAL ENERGY:      -79.603479178 Eh
FINAL SINGLE POINT ENERGY       -79.603479177813

DIPOLE MOMENT
-------------
                                X             Y             Z
Electronic contribution:     -0.00000      -0.00000      -0.00000
Nuclear contribution   :      0.00000       0.00000       0.00000
                        -----------------------------------------
Total Dipole Moment    :      0.00000       0.00000       0.00000
                        -----------------------------------------
Magnitude (a.u.)       :      0.00000
Magnitude (Debye)      :      0.00000

VIBRATIONAL FREQUENCIES
-----------------------

Scaling factor for frequencies =  1.000000000  (already applied!)

   0:         0.00 cm**-1
   1:         0.00 cm**-1
   2:         0.00 cm**-1
   3:         0.00 cm**-1
   4:         0.00 cm**-1
   5:         0.00 cm**-1
   6:      -326.51 cm**-1 ***imaginary mode***
   7:       907.62 cm**-1
   8:       907.64 cm**-1
   9:      1033.73 cm**-1
  10:      1180.24 cm**-1
  11:      1180.27 cm**-1
  12:      1415.34 cm**-1
  13:      1459.59 cm**-1
  14:      1516.51 cm**-1
  15:      1516.54 cm**-1
  16:      1530.97 cm**-1
  17:      1530.99 cm**-1
  18:      3093.45 cm**-1
  19:      3099.40 cm**-1
  20:      3168.41 cm**-1
  21:      3168.41 cm**-1
  22:      3188.15 cm**-1
  23:      3188.15 cm**-1

IR SPECTRUM
-----------

 Mode    freq (cm**-1)   T**2         TX         TY         TZ
-------------------------------------------------------------------
   7:       907.62    2.833992  (  1.683446  -0.000009   0.000000)
   8:       907.64    2.836036  (  0.000009   1.684053   0.000000)
   9:      1033.73    0.000000  (  0.000036   0.000000   0.000000)
  10:      1180.24    0.000000  ( -0.000000  -0.000000  -0.000000)
  11:      1180.27    0.000000  ( -0.000000   0.000000   0.000418)
  12:      1415.34    1.404006  (  0.000000  -0.000000   1.184907)
  13:      1459.59    0.000000  (  0.000241   0.000000   0.000000)
  14:      1516.51    0.000000  ( -0.000000   0.000000   0.000000)
  15:      1516.54    0.000001  ( -0.000000  -0.000000  -0.000885)
  16:      1530.97   10.963609  (  0.000022  -3.311134  -0.000000)
  17:      1530.99   10.955811  (  3.309956   0.000022  -0.000000)
  18:      3093.45   54.383540  ( -0.000000   0.000000  -7.374520)
  19:      3099.40    0.000002  (  0.001527   0.000000  -0.000000)
  20:      3168.41    0.000000  ( -0.000000   0.000000  -0.000000)
  21:      3168.41    0.000004  (  0.000000   0.000000  -0.001950)
  22:      3188.15   49.021705  (  7.001550  -0.000145  -0.000000)
  23:      3188.15   49.014329  (  0.000145   7.001023   0.000000)

--------------------------
THERMOCHEMISTRY AT 298.15K
--------------------------

Temperature         ... 298.15 K
Pressure            ... 1.00 atm
Total Mass          ... 30.07 AMU

Throughout the following assumptions are being made:
  (1) The electronic state is orbitally nondegenerate
  (2) There are no thermally accessible electronically excited states
  (3) Hindered rotations indicated by low frequency modes are not
      treated as such but are treated as vibrations and this may
      cause some error
  (4) All equations used are the standard statistical mechanics
      equations for an ideal gas
  (5) All vibrations are strictly harmonic

freq.     907.62  E(vib)   ...       0.03
freq.     907.64  E(vib)   ...       0.03
freq.    1033.73  E(vib)   ...       0.02
freq.    1180.24  E(vib)   ...       0.01
freq.    1180.27  E(vib)   ...       0.01
freq.    1415.34  E(vib)   ...       0.00
freq.    1459.59  E(vib)   ...       0.00
freq.    1516.51  E(vib)   ...       0.00
freq.    1516.54  E(vib)   ...       0.00
freq.    1530.97  E(vib)   ...       0.00
freq.    1530.99  E(vib)   ...       0.00
freq.    3093.45  E(vib)   ...       0.00
freq.    3099.40  E(vib)   ...       0.00
freq.    3168.41  E(vib)   ...       0.00
freq.    3168.41  E(vib)   ...       0.00
freq.    3188.15  E(vib)   ...       0.00
freq.    3188.15  E(vib)   ...       0.00

------------
INNER ENERGY
------------

The inner energy is: U= E(el) + E(ZPE) + E(vib) + E(rot) + E(trans)
    E(el)   - is the total energy from the electronic structure calculation
              = E(kin-el) + E(nuc-el) + E(el-el) + E(nuc-nuc)
    E(ZPE)  - the the zero temperature vibrational energy from the frequency calculation
    E(vib)  - the the finite temperature correction to E(ZPE) due to population
              of excited vibrational states
    E(rot)  - is the rotational thermal energy
    E(trans)- is the translational thermal energy

Summary of contributions to the inner energy U:
Electronic energy                ...    -79.60347918 Eh
Zero point energy                ...      0.07537412 Eh      47.30 kcal/mol
Thermal vibrational correction   ...      0.00020416 Eh       0.13 kcal/mol
Thermal rotational correction    ...      0.00141627 Eh       0.89 kcal/mol
Thermal translational correction ...      0.00141627 Eh       0.89 kcal/mol
-----------------------------------------------------------------------
Total thermal energy                    -79.52506835 Eh

Summary of corrections to the electronic energy:
(perhaps to be used in another calculation)
Total thermal correction                  0.00303670 Eh       1.91 kcal/mol
Non-thermal (ZPE) correction              0.07537412 Eh      47.30 kcal/mol
-----------------------------------------------------------------------
Total correction                          0.07841083 Eh      49.20 kcal/mol

--------
ENTHALPY
--------

The enthalpy is H = U + kB*T
                kB is Boltzmann's constant
Total free energy                 ...    -79.52506835 Eh
Thermal Enthalpy correction       ...      0.00094421 Eh       0.59 kcal/mol
-----------------------------------------------------------------------
Total Enthalpy                    ...    -79.52412414 Eh

Note: Rotational entropy computed according to Herzberg
Infrared and Raman Spectra, Chapter V,1, Van Nostrand Reinhold, 1945
Point Group:  D3h, Symmetry Number:   6
Rotational constants in cm-1:     2.705841     0.656520     0.656520

Vibrational entropy computed according to the QRRHO of S. Grimme
Chem.Eur.J. 2012 18 9955

-------
ENTROPY
-------

The entropy contributions are T*S = T*(S(el)+S(vib)+S(rot)+S(trans))
     S(el)   - electronic entropy
     S(vib)  - vibrational entropy
     S(rot)  - rotational entropy
     S(trans)- translational entropy
The entropies will be listed as mutliplied by the temperature to get
units of energy

Electronic entropy                ...      0.00000000 Eh      0.00 kcal/mol
Vibrational entropy               ...      0.00024516 Eh      0.15 kcal/mol
Rotational entropy                ...      0.00774645 Eh      4.86 kcal/mol
Translational entropy             ...      0.01716939 Eh     10.77 kcal/mol
-----------------------------------------------------------------------
Final entropy term                ...      0.02516101 Eh     15.79 kcal/mol

In case the symmetry of your molecule has not been determined correctly
or in case you have a reason to use a different symmetry number we print
out the resulting rotational entropy values for sn=1,12 :
 --------------------------------------------------------
|  sn= 1 | S(rot)=       0.00943820 Eh      5.92 kcal/mol|
|  sn= 2 | S(rot)=       0.00878374 Eh      5.51 kcal/mol|
|  sn= 3 | S(rot)=       0.00840091 Eh      5.27 kcal/mol|
|  sn= 4 | S(rot)=       0.00812929 Eh      5.10 kcal/mol|
|  sn= 5 | S(rot)=       0.00791860 Eh      4.97 kcal/mol|
|  sn= 6 | S(rot)=       0.00774645 Eh      4.86 kcal/mol|
|  sn= 7 | S(rot)=       0.00760091 Eh      4.77 kcal/mol|
|  sn= 8 | S(rot)=       0.00747483 Eh      4.69 kcal/mol|
|  sn= 9 | S(rot)=       0.00736362 Eh      4.62 kcal/mol|
|  sn=10 | S(rot)=       0.00726414 Eh      4.56 kcal/mol|
|  sn=11 | S(rot)=       0.00717415 Eh      4.50 kcal/mol|
|  sn=12 | S(rot)=       0.00709200 Eh      4.45 kcal/mol|
 --------------------------------------------------------

-------------------
GIBBS FREE ENERGY
-------------------

The Gibbs free energy is G = H - T*S

Total enthalpy                    ...    -79.52412414 Eh
Total entropy correction          ...     -0.02516101 Eh    -15.79 kcal/mol
-----------------------------------------------------------------------
Final Gibbs free energy         ...    -79.54928515 Eh

For completeness - the Gibbs free energy minus the electronic energy
G-E(el)                           ...      0.05419403 Eh     34.01 kcal/mol

                             ****ORCA TERMINATED NORMALLY****
TOTAL RUN TIME: 0 days 0 hours 2 minutes 39 seconds 666 msec
