                         Program Version 4.2.1 -  RELEASE  -
|  1> ! MP2 6-311G(d,p) Opt Freq TightOpt TightSCF NoFrozenCore
|  2>
|  3> %pal
|  4>  nprocs 2
|  5> end
|  6>
|  7> *xyz 0 1
|  8> C        0.000000000      0.000000000      0.759272761
|  9> C        0.000000000      0.000000000     -0.759272761
| 10> H        0.000000000     -1.014152001      1.158261912
| 11> H       -0.878281397      0.507076001      1.158261912
| 12> H        0.878281397      0.507076001      1.158261912
| 13> H       -0.878281397     -0.507076001     -1.158261912
| 14> H        0.878281397     -0.507076001     -1.158261912
| 15> H        0.000000000      1.014152001     -1.158261912
| 16> *
| 17>
| 18>                          ****END OF INPUT****
 Total Charge           Charge          ....    0
 Multiplicity           Mult            ....    1
 Number of Electrons    NEL             ....   18
MP2 TOTAL ENERGY:      -79.608501808 Eh
FINAL SINGLE POINT ENERGY       -79.608501808134
MP2 TOTAL ENERGY:      -79.608579918 Eh
FINAL SINGLE POINT ENERGY       -79.608579918246
MP2 TOTAL ENERGY:      -79.608589170 Eh
FINAL SINGLE POINT ENERGY       -79.608589170214
MP2 TOTAL ENERGY:      -79.608592612 Eh
FINAL SINGLE POINT ENERGY       -79.608592612359
                    ***********************HURRAY********************

CARTESIAN COORDINATES (ANGSTROEM)
---------------------------------
  C      0.000000    0.000000    0.763447
  C      0.000000   -0.000000   -0.763447
  H     -0.000000   -1.019226    1.157884
  H     -0.882676    0.509613    1.157884
  H      0.882676    0.509613    1.157884
  H     -0.882676   -0.509613   -1.157884
  H      0.882676   -0.509613   -1.157884
  H     -0.000000    1.019226   -1.157884

 Multiplicity           Mult            ....    1
 Number of Electrons    NEL             ....   18
 Basis Dimension        Dim             ....   72

ORBITAL ENERGIES
----------------

  NO   OCC          E(Eh)            E(eV)
   0   2.0000     -11.212801      -305.1158
   1   2.0000     -11.212198      -305.0994
   2   2.0000      -1.017756       -27.6945
   3   2.0000      -0.840963       -22.8838
   4   2.0000      -0.596560       -16.2332
   5   2.0000      -0.596560       -16.2332
   6   2.0000      -0.509256       -13.8576
   7   2.0000      -0.486354       -13.2344
   8   2.0000      -0.486354       -13.2344
   9   0.0000       0.158623         4.3163
  10   0.0000       0.198963         5.4141
  11   0.0000       0.215009         5.8507
  12   0.0000       0.215009         5.8507
  13   0.0000       0.255893         6.9632

MULLIKEN ATOMIC CHARGES
-----------------------
   0 C :   -0.311916
   1 C :   -0.311916
   2 H :    0.103972
   3 H :    0.103972
   4 H :    0.103972
   5 H :    0.103972
   6 H :    0.103972
   7 H :    0.103972
Sum of atomic charges:   -0.0000000

LOEWDIN ATOMIC CHARGES
----------------------
   0 C :   -0.013709
   1 C :   -0.013709
   2 H :    0.004570
   3 H :    0.004570
   4 H :    0.004570
   5 H :    0.004570
   6 H :    0.004570
   7 H :    0.004570

  Mayer bond orders larger than 0.100000
B(  0-C ,  1-C ) :   0.9444 B(  0-C ,  2-H ) :   0.9442 B(  0-C ,  3-H ) :   0.9442
B(  0-C ,  4-H ) :   0.9442 B(  1-C ,  5-H ) :   0.9442 B(  1-C ,  6-H ) :   0.9442
B(  1-C ,  7-H ) :   0.9442

MP2 TOTAL ENERGY:      -79.608592745 Eh
FINAL SINGLE POINT ENERGY       -79.608592745118

DIPOLE MOMENT
-------------
                                X             Y             Z
Electronic contribution:      0.00000       0.00000       0.00000
Nuclear contribution   :     -0.00000      -0.00000      -0.00000
                        -----------------------------------------
Total Dipole Moment    :     -0.00000      -0.00000      -0.00000
                        -----------------------------------------
Magnitude (a.u.)       :      0.00000
Magnitude (Debye)      :      0.00000

VIBRATIONAL FREQUENCIES
-----------------------

Scaling factor for frequencies =  1.000000000  (already applied!)

   0:         0.00 cm**-1
   1:         0.00 cm**-1
   2:         0.00 cm**-1
   3:         0.00 cm**-1
   4:         0.00 cm**-1
   5:         0.00 cm**-1
   6:       333.31 cm**-1
   7:       834.90 cm**-1
   8:       834.92 cm**-1
   9:      1037.59 cm**-1
  10:      1241.64 cm**-1
  11:      1241.65 cm**-1
  12:      1420.83 cm**-1
  13:      1449.30 cm**-1
  14:      1523.97 cm**-1
  15:      1523.98 cm**-1
  16:      1525.74 cm**-1
  17:      1525.76 cm**-1
  18:      3087.07 cm**-1
  19:      3087.22 cm**-1
  20:      3161.73 cm**-1
  21:      3161.73 cm**-1
  22:      3183.46 cm**-1
  23:      3183.47 cm**-1

IR SPECTRUM
-----------

 Mode    freq (cm**-1)   T**2         TX         TY         TZ
-------------------------------------------------------------------
   6:       333.31    0.000002  ( -0.001512   0.000000  -0.000000)
   7:       834.90    3.233669  ( -0.000005  -1.798241  -0.000412)
   8:       834.92    3.235007  ( -1.798613   0.000005   0.000000)
   9:      1037.59    0.000000  ( -0.000000   0.000000  -0.000000)
  10:      1241.64    0.000000  (  0.000000  -0.000000   0.000000)
  11:      1241.65    0.000000  (  0.000000   0.000000   0.000000)
  12:      1420.83    1.508427  ( -0.000000   0.000138  -1.228181)
  13:      1449.30    0.000000  (  0.000000  -0.000000  -0.000000)
  14:      1523.97    0.000000  ( -0.000000   0.000000  -0.000000)
  15:      1523.98    0.000000  ( -0.000000   0.000000   0.000000)
  16:      1525.74    9.100858  (  3.016763  -0.000002  -0.000000)
  17:      1525.76    9.097070  (  0.000002   3.016135   0.000818)
  18:      3087.07    0.000000  (  0.000000  -0.000000  -0.000001)
  19:      3087.22   50.911207  ( -0.000000   0.000992  -7.135209)
  20:      3161.73    0.000000  (  0.000000   0.000000  -0.000000)
  21:      3161.73    0.000000  (  0.000000   0.000000  -0.000000)
  22:      3183.46   57.956977  ( -0.000075  -7.612948  -0.000616)
  23:      3183.47   57.949678  ( -7.612469   0.000075   0.000000)

--------------------------
THERMOCHEMISTRY AT 298.15K
--------------------------

Temperature         ... 298.15 K
Pressure            ... 1.00 atm
Total Mass          ... 30.07 AMU

Throughout the following assumptions are being made:
  (1) The electronic state is orbitally nondegenerate
  (2) There are no thermally accessible electronically excited states
  (3) Hindered rotations indicated by low frequency modes are not
      treated as such but are treated as vibrations and this may
      cause some error
  (4) All equations used are the standard statistical mechanics
      equations for an ideal gas
  (5) All vibrations are strictly harmonic

freq.     333.31  E(vib)   ...       0.24
freq.     834.90  E(vib)   ...       0.04
freq.     834.92  E(vib)   ...       0.04
freq.    1037.59  E(vib)   ...       0.02
freq.    1241.64  E(vib)   ...       0.01
freq.    1241.65  E(vib)   ...       0.01
freq.    1420.83  E(vib)   ...       0.00
freq.    1449.30  E(vib)   ...       0.00
freq.    1523.97  E(vib)   ...       0.00
freq.    1523.98  E(vib)   ...       0.00
freq.    1525.74  E(vib)   ...       0.00
freq.    1525.76  E(vib)   ...       0.00
freq.    3087.07  E(vib)   ...       0.00
freq.    3087.22  E(vib)   ...       0.00
freq.    3161.73  E(vib)   ...       0.00
freq.    3161.73  E(vib)   ...       0.00
freq.    3183.46  E(vib)   ...       0.00
freq.    3183.47  E(vib)   ...       0.00

------------
INNER ENERGY
------------

The inner energy is: U= E(el) + E(ZPE) + E(vib) + E(rot) + E(trans)
    E(el)   - is the total energy from the electronic structure calculation
              = E(kin-el) + E(nuc-el) + E(el-el) + E(nuc-nuc)
    E(ZPE)  - the the zero temperature vibrational energy from the frequency calculation
    E(vib)  - the the finite temperature correction to E(ZPE) due to population
              of excited vibrational states
    E(rot)  - is the rotational thermal energy
    E(trans)- is the translational thermal energy

Summary of contributions to the inner energy U:
Electronic energy                ...    -79.60859275 Eh
Zero point energy                ...      0.07599575 Eh      47.69 kcal/mol
Thermal vibrational correction   ...      0.00060882 Eh       0.38 kcal/mol
Thermal rotational correction    ...      0.00141627 Eh       0.89 kcal/mol
Thermal translational correction ...      0.00141627 Eh       0.89 kcal/mol
-----------------------------------------------------------------------
Total thermal energy                    -79.52915563 Eh

Summary of corrections to the electronic energy:
(perhaps to be used in another calculation)
Total thermal correction                  0.00344136 Eh       2.16 kcal/mol
Non-thermal (ZPE) correction              0.07599575 Eh      47.69 kcal/mol
-----------------------------------------------------------------------
Total correction                          0.07943711 Eh      49.85 kcal/mol

--------
ENTHALPY
--------

The enthalpy is H = U + kB*T
                kB is Boltzmann's constant
Total free energy                 ...    -79.52915563 Eh
Thermal Enthalpy correction       ...      0.00094421 Eh       0.59 kcal/mol
-----------------------------------------------------------------------
Total Enthalpy                    ...    -79.52821142 Eh

Note: Rotational entropy computed according to Herzberg
Infrared and Raman Spectra, Chapter V,1, Van Nostrand Reinhold, 1945
Point Group:  D3d, Symmetry Number:   6
Rotational constants in cm-1:     2.683143     0.667598     0.667598

Vibrational entropy computed according to the QRRHO of S. Grimme
Chem.Eur.J. 2012 18 9955

-------
ENTROPY
-------

The entropy contributions are T*S = T*(S(el)+S(vib)+S(rot)+S(trans))
     S(el)   - electronic entropy
     S(vib)  - vibrational entropy
     S(rot)  - rotational entropy
     S(trans)- translational entropy
The entropies will be listed as mutliplied by the temperature to get
units of energy

Electronic entropy                ...      0.00000000 Eh      0.00 kcal/mol
Vibrational entropy               ...      0.00087070 Eh      0.55 kcal/mol
Rotational entropy                ...      0.00773463 Eh      4.85 kcal/mol
Translational entropy             ...      0.01716939 Eh     10.77 kcal/mol
-----------------------------------------------------------------------
Final entropy term                ...      0.02577472 Eh     16.17 kcal/mol

In case the symmetry of your molecule has not been determined correctly
or in case you have a reason to use a different symmetry number we print
out the resulting rotational entropy values for sn=1,12 :
 --------------------------------------------------------
|  sn= 1 | S(rot)=       0.00942638 Eh      5.92 kcal/mol|
|  sn= 2 | S(rot)=       0.00877192 Eh      5.50 kcal/mol|
|  sn= 3 | S(rot)=       0.00838909 Eh      5.26 kcal/mol|
|  sn= 4 | S(rot)=       0.00811746 Eh      5.09 kcal/mol|
|  sn= 5 | S(rot)=       0.00790678 Eh      4.96 kcal/mol|
|  sn= 6 | S(rot)=       0.00773463 Eh      4.85 kcal/mol|
|  sn= 7 | S(rot)=       0.00758908 Eh      4.76 kcal/mol|
|  sn= 8 | S(rot)=       0.00746301 Eh      4.68 kcal/mol|
|  sn= 9 | S(rot)=       0.00735180 Eh      4.61 kcal/mol|
|  sn=10 | S(rot)=       0.00725232 Eh      4.55 kcal/mol|
|  sn=11 | S(rot)=       0.00716233 Eh      4.49 kcal/mol|
|  sn=12 | S(rot)=       0.00708017 Eh      4.44 kcal/mol|
 --------------------------------------------------------

-------------------
GIBBS FREE ENERGY
-------------------

The Gibbs free energy is G = H - T*S

Total enthalpy                    ...    -79.52821142 Eh
Total entropy correction          ...     -0.02577472 Eh    -16.17 kcal/mol
-----------------------------------------------------------------------
Final Gibbs free energy         ...    -79.55398615 Eh

For completeness - the Gibbs free energy minus the electronic energy
G-E(el)                           ...      0.05460660 Eh     34.27 kcal/mol

                             ****ORCA TERMINATED NORMALLY****
TOTAL RUN TIME: 0 days 0 hours 2 minutes 36 seconds 368 msec
