                         Program Version 4.2.1 -  RELEASE  -
|  1> ! UHF M062X D3Zero 6-311++G(d,p) Opt NumFreq TightOpt TightSCF Grid6 NoFinalGrid PrintBasis PrintMOs NBO
|  2>
|  3> %pal
|  4>  nprocs 12
|  5> end
|  6>
|  7> %cpcm
|  8>  smd true
|  9>  smdsolvent "water"
| 10> end
| 11>
| 12> *xyzfile 0 2 OH·.xyz
| 13>
| 14>                          ****END OF INPUT****
 Total Charge           Charge          ....    0
 Multiplicity           Mult            ....    2
 Number of Electrons    NEL             ....    9
Dispersion correction           -0.000000000
FINAL SINGLE POINT ENERGY       -75.736005206296
Dispersion correction            ... done
                    ***********************HURRAY********************

CARTESIAN COORDINATES (ANGSTROEM)
---------------------------------
  O     -2.436122    1.356890    0.000000
  H     -1.463378    1.356890    0.000000

 Multiplicity           Mult            ....    2
 Number of Electrons    NEL             ....    9
 Basis Dimension        Dim             ....   29

ORBITAL ENERGIES
----------------
                 SPIN UP ORBITALS
  NO   OCC          E(Eh)            E(eV)
   0   1.0000     -19.688997      -535.7648
   1   1.0000      -1.141348       -31.0577
   2   1.0000      -0.564471       -15.3600
   3   1.0000      -0.502457       -13.6725
   4   1.0000      -0.442090       -12.0299
   5   0.0000       0.013651         0.3715
   6   0.0000       0.160044         4.3550
   7   0.0000       0.169752         4.6192
   8   0.0000       0.171557         4.6683
   9   0.0000       0.188891         5.1400

                 SPIN DOWN ORBITALS
  NO   OCC          E(Eh)            E(eV)
   0   1.0000     -19.672926      -535.3275
   1   1.0000      -1.057266       -28.7697
   2   1.0000      -0.532037       -14.4775
   3   1.0000      -0.405671       -11.0389
   4   0.0000      -0.102696        -2.7945
   5   0.0000       0.013558         0.3689
   6   0.0000       0.159767         4.3475
   7   0.0000       0.174646         4.7524
   8   0.0000       0.182835         4.9752

------------------
MOLECULAR ORBITALS
------------------
                      0         1         2         3         4         5
                 -19.68900  -1.14135  -0.56447  -0.50246  -0.44209   0.01365
                   1.00000   1.00000   1.00000   1.00000   1.00000   0.00000
                  --------  --------  --------  --------  --------  --------
  0O   1s         0.552701 -0.120865 -0.034241 -0.000001  0.000002  0.020670
  0O   2s         0.469521 -0.199756 -0.057451 -0.000001  0.000003  0.036055
  0O   1pz       -0.000000 -0.000004  0.000013  0.256060 -0.181323  0.000011
  0O   1px        0.001115  0.042217 -0.261525  0.000016 -0.000010 -0.038629
  0O   1py        0.000000  0.000001  0.000001  0.186750  0.248632 -0.000001
  0O   3s         0.009008  0.588111  0.176084  0.000006 -0.000013 -0.135451
  0O   2pz        0.000000 -0.000005  0.000016  0.378634 -0.266727  0.000016
  0O   2px       -0.000042  0.068731 -0.379803  0.000029 -0.000020 -0.064423
  0O   2py       -0.000000  0.000002  0.000002  0.276148  0.365742 -0.000002
  0O   4s        -0.003551  0.436518  0.244356  0.000006 -0.000017 -0.089389
  0O   3pz       -0.000000 -0.000008  0.000022  0.322319 -0.239676  0.000028
  0O   3px        0.000049  0.027203 -0.266995  0.000013 -0.000014 -0.040694
  0O   3py        0.000000  0.000003  0.000003  0.235062  0.328627  0.000002
  0O   5s         0.002567 -0.020777  0.039730 -0.000013  0.000050 -0.587311
  0O   4pz        0.000000 -0.000002  0.000010  0.036213 -0.043453 -0.000063
  0O   4px        0.000405 -0.005858 -0.030060 -0.000003  0.000019 -0.179007
  0O   4py       -0.000000 -0.000000  0.000001  0.026401  0.059565 -0.000004
  0O   1dz2       0.000039 -0.000606  0.011258 -0.000003  0.000002 -0.000701
  0O   1dxz       0.000000 -0.000001  0.000002  0.011124 -0.007956  0.000001
  0O   1dyz       0.000172  0.009469  0.003509 -0.000001 -0.000002 -0.001399
  0O   1dx2y2     0.000043  0.007127 -0.017250  0.000001 -0.000003  0.000316
  0O   1dxy       0.000000  0.000001  0.000000  0.008111  0.010907 -0.000000
  1H   1s         0.000116  0.101051 -0.162963  0.000012 -0.000010  0.010561
  1H   2s        -0.000110  0.069928 -0.227508 -0.000005  0.000020  0.094383
  1H   3s        -0.000537  0.002512 -0.032939 -0.000003 -0.000042  0.023266
  1H   4s        -0.000712  0.013092 -0.004552  0.000004 -0.000002  1.431170
  1H   1pz       -0.000000 -0.000012  0.000022  0.021897 -0.017977 -0.000010
  1H   1px        0.000459 -0.024093  0.032042  0.000002 -0.000004  0.022707
  1H   1py       -0.000000  0.000002 -0.000003  0.015964  0.024642  0.000000
                      6         7         8         9        10        11
                   0.16004   0.16975   0.17156   0.18889   0.24574   0.56341
                   0.00000   0.00000   0.00000   0.00000   0.00000   0.00000
                  --------  --------  --------  --------  --------  --------
  0O   1s         0.018894  0.000002  0.000019  0.024650  0.030582  0.018802
  0O   2s         0.030883  0.000003  0.000031  0.041672  0.049732  0.033370
  0O   1pz       -0.000025  0.073430  0.094698 -0.000037 -0.000013  0.000004
  0O   1px        0.092115 -0.000032 -0.000012 -0.121565 -0.026654 -0.136834
  0O   1py       -0.000046 -0.099335  0.070089 -0.000017  0.000002 -0.000000
  0O   3s        -0.076662 -0.000004 -0.000079 -0.124461 -0.098398 -0.099118
  0O   2pz       -0.000023  0.067592  0.084873 -0.000019  0.000001  0.000014
  0O   2px        0.077695 -0.000044 -0.000045 -0.168822 -0.051351 -0.255808
  0O   2py       -0.000043 -0.091460  0.062834 -0.000014 -0.000003 -0.000006
  0O   4s        -0.420473 -0.000118 -0.000455 -0.454253 -1.120685 -0.611004
  0O   3pz       -0.000102  0.311922  0.398927 -0.000188 -0.000088 -0.000008
  0O   3px        0.465399 -0.000151  0.000063 -0.292889 -0.188725 -0.885793
  0O   3py       -0.000192 -0.422028  0.295311 -0.000072  0.000023  0.000019
  0O   5s        -0.025678  0.000480 -0.000221 -2.084642  5.293587  2.414801
  0O   4pz        0.000262 -0.746828 -1.005027  0.000461  0.000202  0.000012
  0O   4px       -1.571109  0.000453 -0.000889 -1.357791  2.337750  1.500963
  0O   4py        0.000474  1.009750 -0.743438  0.000185 -0.000042 -0.000024
  0O   1dz2      -0.006381  0.000003 -0.000004 -0.008043  0.011345 -0.010859
  0O   1dxz      -0.000002  0.003121  0.003894  0.000000  0.000000  0.000000
  0O   1dyz      -0.001573  0.000000 -0.000002 -0.002346 -0.001459 -0.003935
  0O   1dx2y2     0.010044 -0.000005  0.000005  0.012425 -0.020586  0.016282
  0O   1dxy      -0.000002 -0.004223  0.002883 -0.000001 -0.000000  0.000001
  1H   1s         0.019646  0.000000  0.000046  0.128410 -0.017489  0.162087
  1H   2s        -0.071868  0.000089 -0.000018 -0.006739  0.228301  2.434371
  1H   3s         1.083309 -0.000299  0.001646  4.191929 -3.672986 -4.687241
  1H   4s        -0.239545 -0.000234 -0.000709 -1.112406 -1.194971  0.687826
  1H   1pz        0.000004 -0.007190 -0.012655 -0.000019 -0.000011 -0.000031
  1H   1px       -0.000125 -0.000008  0.000004  0.032377 -0.027350 -0.033967
  1H   1py        0.000005  0.009677 -0.009329  0.000005  0.000001  0.000000
                     12        13        14        15        16        17
                   1.00413   1.01037   1.03853   1.34714   1.38538   1.39512
                   0.00000   0.00000   0.00000   0.00000   0.00000   0.00000
                  --------  --------  --------  --------  --------  --------
  0O   1s         0.000008 -0.006990 -0.000003 -0.114475 -0.000018 -0.000014
  0O   2s         0.000012 -0.011308 -0.000006 -0.237538 -0.000037 -0.000030
  0O   1pz       -0.212550 -0.000247 -0.155033  0.000001  0.008605  0.007344
  0O   1px        0.000294 -0.232842 -0.000039 -0.012665  0.000013  0.000013
  0O   1py       -0.154915 -0.000230  0.212712 -0.000001  0.006260 -0.010101
  0O   3s         0.000069 -0.037723  0.000032  1.838588  0.000287  0.000231
  0O   2pz       -0.668349 -0.000776 -0.496570  0.000024 -0.032128 -0.023122
  0O   2px        0.000894 -0.694926 -0.000100 -0.174404 -0.000015 -0.000010
  0O   2py       -0.487107 -0.000721  0.681296 -0.000008 -0.023347  0.031771
  0O   4s        -0.001224  0.931347  0.000067 -3.501488 -0.000599 -0.000509
  0O   3pz        1.310227  0.001561  0.950299 -0.000140  0.414438  0.303322
  0O   3px       -0.002901  2.272949  0.000327 -0.517391 -0.000176 -0.000177
  0O   3py        0.954963  0.001403 -1.303872  0.000023  0.301354 -0.417018
  0O   5s         0.001501 -1.143768 -0.000061  2.736520  0.000450  0.000391
  0O   4pz       -0.630010 -0.000737 -0.452658  0.000038 -0.076663 -0.057299
  0O   4px        0.001668 -1.299620 -0.000155  0.655749  0.000143  0.000138
  0O   4py       -0.459178 -0.000674  0.621067 -0.000010 -0.055731  0.078761
  0O   1dz2      -0.000005  0.002731 -0.000002  0.004037  0.000006  0.000005
  0O   1dxz      -0.000896 -0.000004 -0.001109  0.000031 -0.126679 -0.087912
  0O   1dyz      -0.000004  0.003223  0.000000  0.002868 -0.000001 -0.000000
  0O   1dx2y2     0.000006 -0.002660  0.000004 -0.005158 -0.000007 -0.000003
  0O   1dxy      -0.000655 -0.000002  0.001525  0.000001 -0.092142  0.120902
  1H   1s         0.000078 -0.045498  0.000014 -0.008377 -0.000042 -0.000034
  1H   2s         0.001577 -1.247878 -0.000178  1.009427  0.000247  0.000227
  1H   3s        -0.001435  1.130767  0.000110 -1.052404 -0.000209 -0.000197
  1H   4s        -0.000316  0.229973  0.000010 -0.643900 -0.000099 -0.000083
  1H   1pz        0.034580 -0.000022  0.024952  0.000207 -0.819962 -0.598315
  1H   1px       -0.000356  0.289202  0.000055 -0.323270 -0.000095 -0.000092
  1H   1py        0.025180  0.000053 -0.034200 -0.000013 -0.596316  0.822697
                     18        19        20        21        22        23
                   2.06819   2.50984   2.81908   2.81921   3.11062   3.15322
                   0.00000   0.00000   0.00000   0.00000   0.00000   0.00000
                  --------  --------  --------  --------  --------  --------
  0O   1s        -0.032802  0.024033 -0.003433 -0.000099  0.000000  0.000000
  0O   2s        -0.067773  0.058569 -0.005631 -0.000163  0.000001  0.000001
  0O   1pz       -0.000001 -0.000009 -0.000000  0.000003  0.005026  0.003072
  0O   1px        0.167615  0.033551  0.007112  0.000203 -0.000005 -0.000004
  0O   1py       -0.000000  0.000002 -0.000003  0.000001  0.003662 -0.004209
  0O   3s         0.398381 -0.421994  0.026867  0.000784 -0.000006 -0.000007
  0O   2pz       -0.000001 -0.000005  0.000000 -0.000001  0.009957  0.007898
  0O   2px        0.486342 -0.610773  0.020840  0.000610 -0.000006 -0.000002
  0O   2py       -0.000000  0.000001  0.000002 -0.000001  0.007263 -0.010833
  0O   4s         0.143166 -1.369113  0.062939  0.001820 -0.000021  0.000004
  0O   3pz        0.000002  0.000010 -0.000001 -0.000001 -0.176686 -0.127741
  0O   3px       -0.195506 -0.979830  0.046753  0.001354 -0.000014  0.000005
  0O   3py       -0.000002 -0.000001 -0.000004  0.000002 -0.128848  0.175172
  0O   5s         0.727640  1.241656 -0.032183 -0.000934  0.000027  0.000004
  0O   4pz        0.000000 -0.000002  0.000000 -0.000000  0.029121  0.021412
  0O   4px        0.433840  0.699379 -0.020305 -0.000590  0.000013  0.000001
  0O   4py       -0.000001 -0.000001  0.000001 -0.000001  0.021237 -0.029364
  0O   1dz2       0.118927  0.063802 -0.299922  0.816345 -0.000004 -0.000006
  0O   1dxz       0.000003  0.000025 -0.000002 -0.000007 -0.838577 -0.612145
  0O   1dyz       0.018660 -0.013513 -0.942447 -0.332698  0.000004  0.000001
  0O   1dx2y2    -0.194018 -0.119149 -0.145577  0.472114 -0.000002  0.000002
  0O   1dxy       0.000000  0.000002 -0.000001 -0.000000 -0.611523  0.839428
  1H   1s        -0.815044 -1.354307 -0.006771 -0.000179 -0.000025 -0.000017
  1H   2s         1.007410  3.643253 -0.079142 -0.002321  0.000065  0.000024
  1H   3s        -1.747158 -2.468482  0.032166  0.000952 -0.000049 -0.000019
  1H   4s         0.285800  0.302429  0.003204  0.000087  0.000005  0.000004
  1H   1pz       -0.000002  0.000026  0.000000  0.000007  0.405320  0.291444
  1H   1px        0.974864 -1.271102  0.061643  0.001792 -0.000014 -0.000000
  1H   1py        0.000005 -0.000006  0.000001 -0.000001  0.295578 -0.399658
                     24        25        26        27        28
                   3.80726   4.93663   5.00110   5.46975  49.87801
                   0.00000   0.00000   0.00000   0.00000   0.00000
                  --------  --------  --------  --------  --------
  0O   1s         0.011675  0.000000  0.000000  0.013321 -2.246457
  0O   2s         0.021742  0.000000 -0.000000  0.025139  2.335399
  0O   1pz       -0.000001  1.028137  0.750869  0.000009  0.000000
  0O   1px       -0.348514 -0.000006 -0.000010  1.262162  0.011204
  0O   1py       -0.000001  0.749889 -1.029479 -0.000005 -0.000000
  0O   3s         0.009728 -0.000000  0.000000 -0.103423 -0.273022
  0O   2pz        0.000001 -1.225485 -0.891134 -0.000013 -0.000000
  0O   2px       -0.034707  0.000004  0.000013 -1.886140 -0.044486
  0O   2py        0.000002 -0.893830  1.221793  0.000006  0.000000
  0O   4s        -1.616645 -0.000004 -0.000002 -0.832426  0.223267
  0O   3pz        0.000000  0.676889  0.489332  0.000007  0.000000
  0O   3px       -1.299950 -0.000004 -0.000007  0.357429 -0.000127
  0O   3py       -0.000002  0.493703 -0.670902 -0.000003 -0.000000
  0O   5s         0.951155  0.000006  0.000009  0.255888 -0.171801
  0O   4pz       -0.000000 -0.248260 -0.179737 -0.000002 -0.000000
  0O   4px        0.602663  0.000003  0.000006 -0.141613 -0.029777
  0O   4py        0.000000 -0.181073  0.246429  0.000001  0.000000
  0O   1dz2       0.586729 -0.000002 -0.000002  0.239589  0.008648
  0O   1dxz      -0.000003 -0.001994 -0.001874 -0.000005 -0.000000
  0O   1dyz      -0.020541 -0.000001  0.000002 -0.002006  0.000138
  0O   1dx2y2    -1.029422 -0.000001  0.000003 -0.416265 -0.014890
  0O   1dxy       0.000003 -0.001456  0.002573  0.000001  0.000000
  1H   1s         0.389591 -0.000005 -0.000008  0.390933 -0.000507
  1H   2s         1.587154  0.000011  0.000010  0.573743  0.038078
  1H   3s        -0.827206 -0.000007 -0.000013 -0.057912  0.028632
  1H   4s        -0.131485 -0.000000  0.000000 -0.035402  0.051555
  1H   1pz        0.000004  0.021333  0.016089  0.000006  0.000000
  1H   1px       -1.056755 -0.000001  0.000003 -0.832123 -0.061170
  1H   1py       -0.000001  0.015561 -0.022060 -0.000001 -0.000000

                      0         1         2         3         4         5
                 -19.67293  -1.05727  -0.53204  -0.40567  -0.10270   0.01356
                   1.00000   1.00000   1.00000   1.00000   0.00000   0.00000
                  --------  --------  --------  --------  --------  --------
  0O   1s        -0.552807 -0.118050 -0.037919 -0.000002  0.000001  0.021511
  0O   2s        -0.469776 -0.192907 -0.063016 -0.000004  0.000002  0.036820
  0O   1pz        0.000000 -0.000004  0.000016  0.176451 -0.198683  0.000016
  0O   1px       -0.001176  0.046739 -0.251599  0.000010 -0.000018 -0.036745
  0O   1py       -0.000000  0.000001  0.000003 -0.241881 -0.144951  0.000003
  0O   3s        -0.008034  0.563129  0.190275  0.000014 -0.000008 -0.132879
  0O   2pz       -0.000000 -0.000006  0.000019  0.257767 -0.295677  0.000025
  0O   2px        0.000074  0.072704 -0.362523  0.000020 -0.000034 -0.061139
  0O   2py        0.000000  0.000001  0.000005 -0.353354 -0.215717  0.000004
  0O   4s         0.003273  0.421888  0.265481  0.000020 -0.000023 -0.109935
  0O   3pz        0.000000 -0.000009  0.000026  0.245984 -0.310119  0.000038
  0O   3px       -0.000125  0.021180 -0.270077  0.000014 -0.000020 -0.026778
  0O   3py       -0.000000  0.000003  0.000006 -0.337179 -0.226239  0.000010
  0O   5s        -0.002283 -0.008068  0.053511 -0.000057  0.000046 -0.514609
  0O   4pz       -0.000000 -0.000002  0.000012  0.055963 -0.244624 -0.000049
  0O   4px       -0.000316 -0.002644 -0.037741 -0.000022  0.000009 -0.167495
  0O   4py        0.000000 -0.000000  0.000002 -0.076697 -0.178425  0.000001
  0O   1dz2       0.000185 -0.008133  0.008065 -0.000002  0.000003 -0.000447
  0O   1dxz       0.000000 -0.000002  0.000001  0.007765 -0.008016  0.000002
  0O   1dyz       0.000185 -0.004356 -0.000931  0.000002  0.000001 -0.000442
  0O   1dx2y2    -0.000201  0.011296 -0.014566  0.000003 -0.000001  0.000490
  0O   1dxy       0.000000 -0.000000 -0.000000 -0.010644 -0.005848  0.000000
  1H   1s        -0.000098  0.114824 -0.165882  0.000011 -0.000017  0.007249
  1H   2s         0.000189  0.100747 -0.232618 -0.000021  0.000003  0.066785
  1H   3s         0.000409 -0.002052 -0.046605  0.000047 -0.000005 -0.004237
  1H   4s         0.000649  0.011994 -0.003549  0.000003  0.000008  1.412415
  1H   1pz        0.000000 -0.000014  0.000022  0.018417 -0.026261 -0.000008
  1H   1px       -0.000482 -0.028981  0.029879  0.000004 -0.000003  0.025940
  1H   1py        0.000000  0.000001 -0.000003 -0.025239 -0.019152  0.000001
                      6         7         8         9        10        11
                   0.15977   0.17465   0.18284   0.19627   0.22744   0.56911
                   0.00000   0.00000   0.00000   0.00000   0.00000   0.00000
                  --------  --------  --------  --------  --------  --------
  0O   1s         0.021808 -0.000002  0.000019  0.024097  0.028841  0.021381
  0O   2s         0.035128 -0.000003  0.000030  0.040092  0.045748  0.037030
  0O   1pz       -0.000012 -0.076324  0.138248 -0.000061 -0.000028  0.000004
  0O   1px        0.089220  0.000026 -0.000044 -0.125147 -0.030610 -0.137655
  0O   1py       -0.000032  0.104272  0.101039 -0.000039 -0.000005  0.000000
  0O   3s        -0.080485  0.000002 -0.000071 -0.117497 -0.075096 -0.104762
  0O   2pz       -0.000015 -0.073235  0.156504 -0.000056 -0.000019  0.000016
  0O   2px        0.073957  0.000037 -0.000074 -0.169912 -0.052661 -0.251522
  0O   2py       -0.000034  0.099981  0.114345 -0.000044 -0.000012 -0.000005
  0O   4s        -0.518212  0.000133 -0.000487 -0.422790 -1.118549 -0.680899
  0O   3pz       -0.000043 -0.319007  0.522851 -0.000263 -0.000145 -0.000016
  0O   3px        0.448428  0.000129 -0.000093 -0.312794 -0.190018 -0.943901
  0O   3py       -0.000125  0.435984  0.382206 -0.000147  0.000000  0.000014
  0O   5s         0.202544 -0.000630 -0.000020 -2.233099  5.186441  2.581798
  0O   4pz        0.000064  0.741450 -0.993178  0.000510  0.000298  0.000018
  0O   4px       -1.485253 -0.000486 -0.000450 -1.374420  2.339059  1.590904
  0O   4py        0.000265 -1.013925 -0.726365  0.000269 -0.000014 -0.000021
  0O   1dz2      -0.005230 -0.000003 -0.000003 -0.006371  0.010236 -0.005549
  0O   1dxz      -0.000001 -0.003361  0.005536 -0.000001 -0.000000  0.000000
  0O   1dyz      -0.000601 -0.000001 -0.000000  0.000837 -0.001920  0.002998
  0O   1dx2y2     0.008674  0.000005  0.000002  0.011571 -0.018960  0.011533
  0O   1dxy      -0.000001  0.004593  0.004047 -0.000001 -0.000001  0.000001
  1H   1s         0.026542  0.000005  0.000054  0.120157 -0.016986  0.155033
  1H   2s        -0.049390 -0.000081  0.000005 -0.022560  0.148637  2.477053
  1H   3s         1.017537  0.000452  0.001496  4.276290 -3.473407 -4.799028
  1H   4s        -0.355976  0.000222 -0.000833 -1.065811 -1.254707  0.653276
  1H   1pz       -0.000002  0.006170  0.001299 -0.000024 -0.000012 -0.000031
  1H   1px       -0.002409  0.000008  0.000008  0.036686 -0.022539 -0.038591
  1H   1py        0.000001 -0.008460  0.000932  0.000001 -0.000000 -0.000000
                     12        13        14        15        16        17
                   1.01868   1.04912   1.05891   1.37208   1.39974   1.40031
                   0.00000   0.00000   0.00000   0.00000   0.00000   0.00000
                  --------  --------  --------  --------  --------  --------
  0O   1s        -0.007403 -0.000003 -0.000002 -0.116072 -0.000028 -0.000024
  0O   2s        -0.012058 -0.000005 -0.000005 -0.238092 -0.000057 -0.000049
  0O   1pz        0.000072 -0.155335 -0.212713 -0.000003  0.017485  0.007662
  0O   1px       -0.234345 -0.000035 -0.000058 -0.013142  0.000013  0.000012
  0O   1py        0.000008  0.212356 -0.155591 -0.000002  0.012335 -0.011422
  0O   3s        -0.035731  0.000030  0.000012  1.839716  0.000446  0.000383
  0O   2pz        0.000238 -0.505895 -0.729867  0.000022 -0.012653 -0.019884
  0O   2px       -0.707541 -0.000091 -0.000162 -0.182103 -0.000030 -0.000025
  0O   2py        0.000032  0.691504 -0.533795 -0.000011 -0.008145  0.027868
  0O   4s         0.934223  0.000059  0.000183 -3.494722 -0.000906 -0.000795
  0O   3pz       -0.000397  0.951246  1.290960 -0.000190  0.389811  0.289557
  0O   3px        2.261844  0.000291  0.000521 -0.523438 -0.000230 -0.000220
  0O   3py       -0.000056 -1.300507  0.944332  0.000037  0.268548 -0.417024
  0O   5s        -1.124628 -0.000049 -0.000218  2.688844  0.000681  0.000607
  0O   4pz        0.000202 -0.452861 -0.611924  0.000046 -0.067889 -0.053714
  0O   4px       -1.284971 -0.000136 -0.000285  0.643319  0.000201  0.000189
  0O   4py        0.000025  0.619129 -0.447616 -0.000012 -0.046586  0.077113
  0O   1dz2      -0.002147 -0.000002 -0.000002  0.006615  0.000008  0.000006
  0O   1dxz      -0.000002 -0.002110 -0.003676  0.000045 -0.117219 -0.081916
  0O   1dyz      -0.001349 -0.000000 -0.000000  0.005860  0.000002  0.000001
  0O   1dx2y2     0.002859  0.000004  0.000004 -0.007706 -0.000008 -0.000004
  0O   1dxy      -0.000000  0.002888 -0.002691 -0.000004 -0.081041  0.118360
  1H   1s        -0.045132  0.000015  0.000008 -0.009048 -0.000045 -0.000035
  1H   2s        -1.220881 -0.000158 -0.000290  1.020741  0.000343  0.000312
  1H   3s         1.080735  0.000090  0.000245 -1.028975 -0.000299 -0.000278
  1H   4s         0.238294  0.000010  0.000038 -0.632044 -0.000152 -0.000133
  1H   1pz       -0.000070  0.021528  0.007914  0.000330 -0.839934 -0.580305
  1H   1px        0.294932  0.000051  0.000082 -0.340154 -0.000130 -0.000121
  1H   1py        0.000017 -0.029451  0.005805 -0.000036 -0.581042  0.838977
                     18        19        20        21        22        23
                   2.08454   2.50895   2.87879   2.91565   3.16063   3.17155
                   0.00000   0.00000   0.00000   0.00000   0.00000   0.00000
                  --------  --------  --------  --------  --------  --------
  0O   1s        -0.034556  0.026045 -0.000001 -0.000374  0.000001  0.000000
  0O   2s        -0.069727  0.061977 -0.000001 -0.000633  0.000001  0.000001
  0O   1pz       -0.000001 -0.000009  0.000003 -0.000000 -0.001511  0.002505
  0O   1px        0.171157  0.030926 -0.000003  0.005518 -0.000006 -0.000004
  0O   1py       -0.000000  0.000003  0.000001  0.000003 -0.001108 -0.003427
  0O   3s         0.406299 -0.442797  0.000011 -0.001938 -0.000007 -0.000007
  0O   2pz        0.000001 -0.000007 -0.000001  0.000000  0.013610  0.008850
  0O   2px        0.476020 -0.626307  0.000010  0.008598 -0.000006 -0.000002
  0O   2py        0.000001  0.000000 -0.000001 -0.000001  0.009925 -0.012152
  0O   4s         0.109929 -1.372408 -0.000004  0.047985 -0.000024  0.000002
  0O   3pz        0.000001  0.000011 -0.000002 -0.000005 -0.173570 -0.127112
  0O   3px       -0.205691 -0.979029 -0.000001  0.024963 -0.000016  0.000003
  0O   3py       -0.000003 -0.000000  0.000003 -0.000000 -0.126498  0.174421
  0O   5s         0.763848  1.230466  0.000001 -0.022316  0.000026  0.000006
  0O   4pz        0.000001 -0.000002  0.000000  0.000001  0.029836  0.021526
  0O   4px        0.447907  0.693478 -0.000000 -0.011224  0.000014  0.000002
  0O   4py       -0.000000 -0.000001 -0.000001 -0.000001  0.021746 -0.029539
  0O   1dz2       0.108826  0.071627  0.824662  0.259956 -0.000009 -0.000012
  0O   1dxz       0.000003  0.000023 -0.000012 -0.000019 -0.840404 -0.612350
  0O   1dyz      -0.009161  0.005927 -0.305360  0.952101 -0.000020  0.000003
  0O   1dx2y2    -0.194369 -0.120236  0.476117  0.160375 -0.000009 -0.000003
  0O   1dxy      -0.000000  0.000001  0.000006 -0.000014 -0.612470  0.840240
  1H   1s        -0.849864 -1.330900  0.000016 -0.003371 -0.000021 -0.000016
  1H   2s         1.072421  3.624622 -0.000029 -0.040816  0.000063  0.000027
  1H   3s        -1.796031 -2.430950  0.000017  0.017692 -0.000046 -0.000020
  1H   4s         0.288146  0.294693 -0.000006  0.003133  0.000004  0.000004
  1H   1pz       -0.000001  0.000028  0.000009  0.000010  0.394205  0.288106
  1H   1px        0.950531 -1.301899  0.000011  0.028376 -0.000016 -0.000002
  1H   1py        0.000005 -0.000006 -0.000005  0.000007  0.287289 -0.395326
                     24        25        26        27        28
                   3.84742   5.01773   5.04018   5.49236  49.87210
                   0.00000   0.00000   0.00000   0.00000   0.00000
                  --------  --------  --------  --------  --------
  0O   1s         0.011066 -0.000000  0.000000  0.013302 -2.246367
  0O   2s         0.020656  0.000000  0.000000  0.025265  2.335572
  0O   1pz        0.000000 -0.752187 -1.035359  0.000021  0.000000
  0O   1px       -0.355094  0.000009  0.000019  1.261238  0.011138
  0O   1py       -0.000000  1.030288 -0.755882  0.000005 -0.000000
  0O   3s         0.012304  0.000000 -0.000001 -0.103549 -0.273964
  0O   2pz       -0.000002  0.889377  1.205421 -0.000026 -0.000000
  0O   2px       -0.023619 -0.000011 -0.000028 -1.882478 -0.044541
  0O   2py       -0.000000 -1.218217  0.880052 -0.000005  0.000000
  0O   4s        -1.582281  0.000002 -0.000008 -0.832821  0.223952
  0O   3pz        0.000002 -0.486185 -0.651719  0.000013  0.000000
  0O   3px       -1.278054  0.000006  0.000008  0.351483 -0.000064
  0O   3py       -0.000001  0.665955 -0.475810  0.000002 -0.000000
  0O   5s         0.931171 -0.000009 -0.000002  0.255937 -0.172287
  0O   4pz       -0.000001  0.178719  0.240419 -0.000005 -0.000000
  0O   4px        0.591680 -0.000006 -0.000005 -0.139785 -0.029883
  0O   4py       -0.000000 -0.244800  0.175525 -0.000001  0.000000
  0O   1dz2       0.594086  0.000002  0.000005  0.242498  0.008580
  0O   1dxz       0.000000  0.002433  0.006142 -0.000005 -0.000000
  0O   1dyz       0.008388 -0.000002  0.000001 -0.000527 -0.000007
  0O   1dx2y2    -1.023614 -0.000003 -0.000006 -0.420354 -0.014866
  0O   1dxy       0.000004 -0.003334  0.004486  0.000000  0.000000
  1H   1s         0.391467  0.000007  0.000010  0.395493 -0.000514
  1H   2s         1.545977 -0.000011 -0.000001  0.571117  0.038048
  1H   3s        -0.802763  0.000013  0.000006 -0.055559  0.028780
  1H   4s        -0.131260 -0.000000 -0.000000 -0.036471  0.051678
  1H   1pz        0.000002 -0.016160 -0.024262  0.000006  0.000000
  1H   1px       -1.035238 -0.000002 -0.000011 -0.832352 -0.061265
  1H   1py       -0.000001  0.022136 -0.017714 -0.000001 -0.000000

MULLIKEN ATOMIC CHARGES AND SPIN POPULATIONS
--------------------------------------------
   0 O :   -0.325972    1.024048
   1 H :    0.325972   -0.024048
Sum of atomic charges         :   -0.0000000

LOEWDIN ATOMIC CHARGES AND SPIN POPULATIONS
-------------------------------------------
   0 O :   -0.112584    0.997167
   1 H :    0.112584    0.002833

  Mayer bond orders larger than 0.100000
B(  0-O ,  1-H ) :   0.9194

Dispersion correction           -0.000000000
FINAL SINGLE POINT ENERGY       -75.736004980279

DIPOLE MOMENT
-------------
                                X             Y             Z
Electronic contribution:      0.02383      -0.00003       0.00007
Nuclear contribution   :      0.85766       0.00000       0.00000
                        -----------------------------------------
Total Dipole Moment    :      0.88149      -0.00003       0.00007
                        -----------------------------------------
Magnitude (a.u.)       :      0.88149
Magnitude (Debye)      :      2.24057

VIBRATIONAL FREQUENCIES
-----------------------

Scaling factor for frequencies =  1.000000000 (already applied!)

   0:         0.00 cm**-1
   1:         0.00 cm**-1
   2:         0.00 cm**-1
   3:         0.00 cm**-1
   4:         0.00 cm**-1
   5:      3775.24 cm**-1

IR SPECTRUM
-----------

 Mode    freq (cm**-1)   T**2         TX         TY         TZ
-------------------------------------------------------------------
   5:      3775.24  105.210723  (-10.257228   0.000391  -0.002426)

--------------------------
THERMOCHEMISTRY AT 298.15K
--------------------------

Temperature         ... 298.15 K
Pressure            ... 1.00 atm
Total Mass          ... 17.01 AMU
The molecule is recognized as being linear

Throughout the following assumptions are being made:
  (1) The electronic state is orbitally nondegenerate
      but the spin degeneracy is treated
  (2) There are no thermally accessible electronically excited states
  (3) Hindered rotations indicated by low frequency modes are not
      treated as such but are treated as vibrations and this may
      cause some error
  (4) All equations used are the standard statistical mechanics
      equations for an ideal gas
  (5) All vibrations are strictly harmonic

freq.    3775.24  E(vib)   ...       0.00

------------
INNER ENERGY
------------

The inner energy is: U= E(el) + E(ZPE) + E(vib) + E(rot) + E(trans)
    E(el)   - is the total energy from the electronic structure calculation
              = E(kin-el) + E(nuc-el) + E(el-el) + E(nuc-nuc)
    E(ZPE)  - the the zero temperature vibrational energy from the frequency calculation
    E(vib)  - the the finite temperature correction to E(ZPE) due to population
              of excited vibrational states
    E(rot)  - is the rotational thermal energy
    E(trans)- is the translational thermal energy

Summary of contributions to the inner energy U:
Electronic energy                ...    -75.73600498 Eh
Zero point energy                ...      0.00860063 Eh       5.40 kcal/mol
Thermal vibrational correction   ...      0.00000000 Eh       0.00 kcal/mol
Thermal rotational correction    ...      0.00094418 Eh       0.59 kcal/mol
Thermal translational correction ...      0.00141627 Eh       0.89 kcal/mol
-----------------------------------------------------------------------
Total thermal energy                    -75.72504390 Eh

Summary of corrections to the electronic energy:
(perhaps to be used in another calculation)
Total thermal correction                  0.00236045 Eh       1.48 kcal/mol
Non-thermal (ZPE) correction              0.00860063 Eh       5.40 kcal/mol
-----------------------------------------------------------------------
Total correction                          0.01096108 Eh       6.88 kcal/mol

--------
ENTHALPY
--------

The enthalpy is H = U + kB*T
                kB is Boltzmann's constant
Total free energy                 ...    -75.72504390 Eh
Thermal Enthalpy correction       ...      0.00094421 Eh       0.59 kcal/mol
-----------------------------------------------------------------------
Total Enthalpy                    ...    -75.72409969 Eh

Note: Rotational entropy computed according to Herzberg
Infrared and Raman Spectra, Chapter V,1, Van Nostrand Reinhold, 1945
Point Group:  Cinfv, Symmetry Number:   1
Rotational constants in cm-1:     0.000000    18.787728    18.787728

Vibrational entropy computed according to the QRRHO of S. Grimme
Chem.Eur.J. 2012 18 9955

-------
ENTROPY
-------

The entropy contributions are T*S = T*(S(el)+S(vib)+S(rot)+S(trans))
     S(el)   - electronic entropy
     S(vib)  - vibrational entropy
     S(rot)  - rotational entropy
     S(trans)- translational entropy
The entropies will be listed as mutliplied by the temperature to get
units of energy

Electronic entropy                ...      0.00065446 Eh      0.41 kcal/mol
Vibrational entropy               ...      0.00000000 Eh      0.00 kcal/mol
Rotational entropy                ...      0.00321079 Eh      2.01 kcal/mol
Translational entropy             ...      0.01636225 Eh     10.27 kcal/mol
-----------------------------------------------------------------------
Final entropy term                ...      0.02022750 Eh     12.69 kcal/mol

In case the symmetry of your molecule has not been determined correctly
or in case you have a reason to use a different symmetry number we print
out the resulting rotational entropy values for sn=1,12 :
 --------------------------------------------------------
|  sn= 1 | S(rot)=      -0.06191887 Eh    -38.85 kcal/mol|
|  sn= 2 | S(rot)=      -0.06257333 Eh    -39.27 kcal/mol|
|  sn= 3 | S(rot)=      -0.06295616 Eh    -39.51 kcal/mol|
|  sn= 4 | S(rot)=      -0.06322778 Eh    -39.68 kcal/mol|
|  sn= 5 | S(rot)=      -0.06343847 Eh    -39.81 kcal/mol|
|  sn= 6 | S(rot)=      -0.06361061 Eh    -39.92 kcal/mol|
|  sn= 7 | S(rot)=      -0.06375616 Eh    -40.01 kcal/mol|
|  sn= 8 | S(rot)=      -0.06388224 Eh    -40.09 kcal/mol|
|  sn= 9 | S(rot)=      -0.06399345 Eh    -40.16 kcal/mol|
|  sn=10 | S(rot)=      -0.06409293 Eh    -40.22 kcal/mol|
|  sn=11 | S(rot)=      -0.06418292 Eh    -40.28 kcal/mol|
|  sn=12 | S(rot)=      -0.06426507 Eh    -40.33 kcal/mol|
 --------------------------------------------------------

-------------------
GIBBS FREE ENERGY
-------------------

The Gibbs free energy is G = H - T*S

Total enthalpy                    ...    -75.72409969 Eh
Total entropy correction          ...     -0.02022750 Eh    -12.69 kcal/mol
-----------------------------------------------------------------------
Final Gibbs free energy         ...    -75.74432719 Eh

For completeness - the Gibbs free energy minus the electronic energy
G-E(el)                           ...     -0.00832221 Eh     -5.22 kcal/mol

                             ****ORCA TERMINATED NORMALLY****
TOTAL RUN TIME: 0 days 0 hours 1 minutes 24 seconds 533 msec
