   * xtb version 6.4.0 (d4b70c2) compiled by 'ehlert@majestix' on 2021-02-01
          program call               : xtb cyclohexane-chair.xyz --gbsa methanol --ohess
          number of atoms            :                    18
          number of electrons        :                    36
          charge                     :                     0

   ID    Z sym.   atoms
    1    6 C      1-3, 6, 9, 12
    2    1 H      4, 5, 7, 8, 10, 11, 13-18

        Solvent                        methanol
        Solvent mass                       3.2040E+01 g/mol
          :  Hamiltonian                  GFN2-xTB          :
 * total energy  :   -18.9915819 Eh     change        0.1065814E-13 Eh
 * total energy  :   -18.9915824 Eh     change       -0.5609398E-06 Eh
   *** GEOMETRY OPTIMIZATION CONVERGED AFTER 2 ITERATIONS ***

 final structure:
================
18
 xtb: 6.4.0 (d4b70c2)
C        -1.97316182855423   -0.04748969538500   -0.65049458292485
C        -1.22611087556379   -0.71670164443383    0.50006970808407
C         0.02180176814112    1.41589566400419    0.93082645773007
H        -1.62548102339799    2.56915222955549    0.16649858915672
H        -0.09767654947983    2.85745364466829   -0.67120748598861
C        -0.83357243741328    0.31572040429031    1.55362919415163
H         0.95134939206559    0.98156210378130    0.55446933384231
H         0.28227846032552    2.15915262927972    1.68794180250297
C        -1.11874444536795    1.05330813427626   -1.27351459785362
H        -1.85240559835121   -1.48994716020346    0.95096757353118
H        -0.32492084828115   -1.19914849547542    0.11361266129920
C        -0.72497970019092    2.08527823280321   -0.21988177096574
H        -1.66939573239110    1.53880702004239   -2.08255090069129
H        -0.21570576636631    0.61123965671719   -1.70169113013936
H        -0.28401115784522   -0.16930245101234    2.36366760196225
H        -1.73721385566513    0.75818285704715    1.98023909950724
H        -2.23328481069618   -0.79064335627304   -1.40779043035228
H        -2.90289169123432    0.38620659156351   -0.27396131218277

          :  Hamiltonian                  GFN2-xTB          :
         :: gradient norm              0.000185237066 Eh/a0 ::
         :: HOMO-LUMO gap             13.656982571948 eV    ::
         :: SCC energy               -19.271996200020 Eh    ::
         :: -> dispersion             -0.011250112270 Eh    ::
         :: -> Gsolv                  -0.004878415416 Eh    ::
         :: repulsion energy           0.280385489555 Eh    ::

    * Orbital Energies and Occupations

         #    Occupation            Energy/Eh            Energy/eV
      -------------------------------------------------------------
         1        2.0000           -0.6285884             -17.1048
       ...           ...                  ...                  ...
         6        2.0000           -0.5448209             -14.8253
         7        2.0000           -0.5182543             -14.1024
         8        2.0000           -0.4945180             -13.4565
         9        2.0000           -0.4945089             -13.4563
        10        2.0000           -0.4904173             -13.3449
        11        2.0000           -0.4653637             -12.6632
        12        2.0000           -0.4608887             -12.5414
        13        2.0000           -0.4608456             -12.5402
        14        2.0000           -0.4335563             -11.7977
        15        2.0000           -0.4335527             -11.7976
        16        2.0000           -0.4162211             -11.3260
        17        2.0000           -0.4086993             -11.1213
        18        2.0000           -0.4086486             -11.1199 (HOMO)
        19                          0.0932363               2.5371 (LUMO)
        20                          0.1022565               2.7825
        21                          0.1023582               2.7853
        22                          0.1160052               3.1567
        23                          0.1161943               3.1618
        24                          0.1200737               3.2674
        25                          0.1417821               3.8581
        26                          0.1877519               5.1090
        27                          0.1877792               5.1097
        28                          0.1930999               5.2545
        29                          0.2010608               5.4711
       ...                                ...                  ...
        36                          0.3090571               8.4099
      -------------------------------------------------------------
                  HL-Gap            0.5018849 Eh           13.6570 eV

     #   Z          covCN         q      C6AA      α(0)
     1   6 C        3.805    -0.057    21.590     6.615
     2   6 C        3.805    -0.057    21.590     6.615
     3   6 C        3.805    -0.057    21.590     6.615
     4   1 H        0.924     0.031     2.573     2.509
     5   1 H        0.924     0.026     2.648     2.545
     6   6 C        3.805    -0.057    21.590     6.615
     7   1 H        0.924     0.031     2.573     2.509
     8   1 H        0.924     0.026     2.647     2.544
     9   6 C        3.805    -0.057    21.590     6.615
    10   1 H        0.924     0.026     2.648     2.545
    11   1 H        0.924     0.031     2.573     2.508
    12   6 C        3.805    -0.057    21.590     6.615
    13   1 H        0.924     0.026     2.647     2.544
    14   1 H        0.924     0.031     2.573     2.509
    15   1 H        0.924     0.026     2.648     2.545
    16   1 H        0.924     0.031     2.573     2.508
    17   1 H        0.924     0.026     2.647     2.544
    18   1 H        0.924     0.031     2.573     2.509

Wiberg/Mayer (AO) data.
largest (>0.10) Wiberg bond orders for each atom

     #   Z sym  total        # sym  WBO       # sym  WBO       # sym  WBO
 ---------------------------------------------------------------------------
     1   6 C    3.998 --     2 C    1.009     9 C    1.009    17 H    0.978
                            18 H    0.978
     2   6 C    3.998 --     1 C    1.009     6 C    1.009    10 H    0.978
                            11 H    0.978
     3   6 C    3.998 --    12 C    1.009     6 C    1.009     8 H    0.978
                             7 H    0.978
     4   1 H    0.999 --    12 C    0.978
     5   1 H    0.999 --    12 C    0.978
     6   6 C    3.998 --     3 C    1.009     2 C    1.009    15 H    0.978
                            16 H    0.978
     7   1 H    0.999 --     3 C    0.978
     8   1 H    0.999 --     3 C    0.978
     9   6 C    3.998 --     1 C    1.009    12 C    1.009    13 H    0.978
                            14 H    0.978
    10   1 H    0.999 --     2 C    0.978
    11   1 H    0.999 --     2 C    0.978
    12   6 C    3.998 --     3 C    1.009     9 C    1.009     5 H    0.978
                             4 H    0.978
    13   1 H    0.999 --     9 C    0.978
    14   1 H    0.999 --     9 C    0.978
    15   1 H    0.999 --     6 C    0.978
    16   1 H    0.999 --     6 C    0.978
    17   1 H    0.999 --     1 C    0.978
    18   1 H    0.999 --     1 C    0.978
 ---------------------------------------------------------------------------

molecular dipole:
                 x           y           z       tot (Debye)
 q only:        0.000       0.000      -0.000
   full:        0.000       0.000      -0.000       0.000

 projected vibrational frequencies (cm⁻¹)
eigval :       -0.00    -0.00    -0.00     0.00     0.00     0.00
eigval :      230.63   231.61   374.08   417.88   419.05   539.04
eigval :      822.27   823.39   868.28   931.60   932.18   936.98
eigval :      937.47  1011.99  1064.36  1095.08  1095.77  1124.51
eigval :     1159.63  1177.76  1248.25  1248.85  1250.48  1251.05
eigval :     1331.19  1345.97  1346.61  1349.92  1359.27  1359.47
eigval :     1481.20  1481.82  1490.00  1490.50  1491.22  1507.39
eigval :     2951.63  2952.01  2952.44  2957.28  2957.92  2961.68
eigval :     2970.01  2970.42  2973.43  2974.78  2975.56  2982.72

   temp. (K)  partition function   enthalpy   heat capacity  entropy
                                   cal/mol     cal/K/mol   cal/K/mol   J/K/mol
 298.15  VIB   4.45                 1790.642     16.605      8.972
         ROT  0.209E+05              888.752      2.981     22.752
         INT  0.930E+05             2679.395     19.586     31.724
         TR   0.747E+27             1481.254      4.968     39.186
         TOT                        4160.6485    24.5544    70.9097   296.6863

       T/K    H(0)-H(T)+PV         H(T)/Eh          T*S/Eh         G(T)/Eh
   ------------------------------------------------------------------------
    298.15    0.663042E-02    0.174774E+00    0.336915E-01    0.141083E+00
   ------------------------------------------------------------------------

         :::::::::::::::::::::::::::::::::::::::::::::::::::::
         ::                  THERMODYNAMIC                  ::
         :::::::::::::::::::::::::::::::::::::::::::::::::::::
         :: total free energy         -18.850499707817 Eh   ::
         ::.................................................::
         :: total energy              -18.991582442323 Eh   ::
         :: zero point energy           0.168143815642 Eh   ::
         :: G(RRHO) w/o ZPVE           -0.027061081137 Eh   ::
         :: G(RRHO) contrib.            0.141082734505 Eh   ::
         :::::::::::::::::::::::::::::::::::::::::::::::::::::

           -------------------------------------------------
          | TOTAL ENERGY              -18.991582442323 Eh   |
          | TOTAL ENTHALPY            -18.816808211291 Eh   |
          | TOTAL FREE ENERGY         -18.850499707817 Eh   |
          | GRADIENT NORM               0.000185235641 Eh/α |
          | HOMO-LUMO GAP              13.656982614522 eV   |
           -------------------------------------------------

 * finished run on 2021/11/09 at 15:13:45.469
