                         Program Version 4.2.1 -  RELEASE  -
|  1> ! B97-3c Opt Freq TightOpt TightSCF
|  2>
|  3> %pal
|  4>  nprocs 2
|  5> end
|  6>
|  7> *xyz 0 1
|  8> C       -7.633588000      2.520693000     -0.000048000
|  9> C       -6.124410000      2.689104000      0.000047000
| 10> H       -7.925146000      1.535366000     -0.363240000
| 11> H       -8.117558000      3.259536000     -0.638459000
| 12> H       -8.047628000      2.634298000      1.001593000
| 13> H       -5.815403252      3.516534335     -0.638306222
| 14> H       -5.622756499      1.792368159     -0.363127044
| 15> H       -5.745503706      2.891318392      1.001707199
| 16> *
| 17>
| 18>                          ****END OF INPUT****
 Total Charge           Charge          ....    0
 Multiplicity           Mult            ....    1
 Number of Electrons    NEL             ....   18
Dispersion correction           -0.007662708
FINAL SINGLE POINT ENERGY       -79.783660450248
Dispersion correction            ... done
Dispersion correction           -0.007636117
FINAL SINGLE POINT ENERGY       -79.783885438694
Dispersion correction            ... done
Dispersion correction           -0.007630576
FINAL SINGLE POINT ENERGY       -79.783892940879
Dispersion correction            ... done
Dispersion correction           -0.007629761
FINAL SINGLE POINT ENERGY       -79.783893732274
Dispersion correction            ... done
Dispersion correction           -0.007629614
FINAL SINGLE POINT ENERGY       -79.783894099285
Dispersion correction            ... done
                    ***********************HURRAY********************

CARTESIAN COORDINATES (ANGSTROEM)
---------------------------------
  C     -7.640622    2.519930   -0.000016
  C     -6.117405    2.689919    0.000069
  H     -7.940873    1.538498   -0.362970
  H     -8.132488    3.255146   -0.634390
  H     -8.062699    2.630374    0.997277
  H     -5.799545    3.513728   -0.636577
  H     -5.608028    1.797845   -0.360119
  H     -5.730333    2.893778    0.996894

 Multiplicity           Mult            ....    1
 Number of Electrons    NEL             ....   18
 Basis Dimension        Dim             ....   56

ORBITAL ENERGIES
----------------

  NO   OCC          E(Eh)            E(eV)
   0   2.0000      -9.876332      -268.7487
   1   2.0000      -9.876230      -268.7459
   2   2.0000      -0.682361       -18.5680
   3   2.0000      -0.557757       -15.1773
   4   2.0000      -0.386469       -10.5164
   5   2.0000      -0.386393       -10.5143
   6   2.0000      -0.327266        -8.9054
   7   2.0000      -0.298671        -8.1273
   8   2.0000      -0.298663        -8.1270
   9   0.0000       0.037596         1.0231
  10   0.0000       0.069337         1.8868
  11   0.0000       0.080005         2.1771
  12   0.0000       0.080069         2.1788
  13   0.0000       0.162388         4.4188

MULLIKEN ATOMIC CHARGES
-----------------------
   0 C :   -0.491102
   1 C :   -0.491640
   2 H :    0.164360
   3 H :    0.163477
   4 H :    0.163459
   5 H :    0.163610
   6 H :    0.164250
   7 H :    0.163586
Sum of atomic charges:   -0.0000000

LOEWDIN ATOMIC CHARGES
----------------------
   0 C :   -0.450537
   1 C :   -0.450705
   2 H :    0.150205
   3 H :    0.150139
   4 H :    0.150143
   5 H :    0.150209
   6 H :    0.150308
   7 H :    0.150238

  Mayer bond orders larger than 0.100000
B(  0-C ,  1-C ) :   0.9149 B(  0-C ,  2-H ) :   0.9729 B(  0-C ,  3-H ) :   0.9728
B(  0-C ,  4-H ) :   0.9732 B(  1-C ,  5-H ) :   0.9731 B(  1-C ,  6-H ) :   0.9727
B(  1-C ,  7-H ) :   0.9726

Dispersion correction           -0.007629767
FINAL SINGLE POINT ENERGY       -79.783894160233

DIPOLE MOMENT
-------------
                                X             Y             Z
Electronic contribution:      0.00047       0.00047      -0.00017
Nuclear contribution   :      0.00009      -0.00013      -0.00003
                        -----------------------------------------
Total Dipole Moment    :      0.00055       0.00034      -0.00020
                        -----------------------------------------
Magnitude (a.u.)       :      0.00068
Magnitude (Debye)      :      0.00172

Dispersion correction in the Hessian             ... done   (      0.6 sec)

VIBRATIONAL FREQUENCIES
-----------------------

Scaling factor for frequencies =  1.000000000  (already applied!)

   0:         0.00 cm**-1
   1:         0.00 cm**-1
   2:         0.00 cm**-1
   3:         0.00 cm**-1
   4:         0.00 cm**-1
   5:         0.00 cm**-1
   6:      -298.94 cm**-1 ***imaginary mode***
   7:       902.19 cm**-1
   8:       902.54 cm**-1
   9:       992.11 cm**-1
  10:      1168.85 cm**-1
  11:      1168.98 cm**-1
  12:      1410.01 cm**-1
  13:      1449.71 cm**-1
  14:      1513.01 cm**-1
  15:      1513.11 cm**-1
  16:      1521.54 cm**-1
  17:      1521.60 cm**-1
  18:      3003.48 cm**-1
  19:      3010.82 cm**-1
  20:      3055.51 cm**-1
  21:      3055.84 cm**-1
  22:      3077.75 cm**-1
  23:      3078.05 cm**-1

IR SPECTRUM
-----------

 Mode    freq (cm**-1)   T**2         TX         TY         TZ
-------------------------------------------------------------------
   7:       902.19    5.083567  ( -0.236371   2.120566   0.728627)
   8:       902.54    5.020107  (  0.083655  -0.718946   2.120430)
   9:       992.11    0.000022  (  0.002214  -0.003599  -0.002044)
  10:      1168.85    0.000078  ( -0.008154   0.000570  -0.003366)
  11:      1168.98    0.000075  ( -0.001787  -0.000734   0.008421)
  12:      1410.01    3.155813  (  1.766290   0.189809   0.002199)
  13:      1449.71    0.000056  ( -0.002400   0.003884   0.005942)
  14:      1513.01    0.007434  ( -0.009630   0.012023  -0.084831)
  15:      1513.11    0.006089  ( -0.010635   0.065736  -0.040675)
  16:      1521.54   14.027950  (  0.411357  -3.705077  -0.362130)
  17:      1521.60   14.153377  (  0.034760  -0.372863   3.743413)
  18:      3003.48   83.917484  (  9.101540   1.038969  -0.000974)
  19:      3010.82    0.001191  ( -0.015945  -0.030324   0.004123)
  20:      3055.51    0.004468  ( -0.041544   0.046332   0.024403)
  21:      3055.84    0.004890  (  0.010003   0.035182  -0.059596)
  22:      3077.75   76.324038  (  0.793955  -6.876273  -5.330154)
  23:      3078.05   76.389587  ( -0.600393   5.294989  -6.927641)

--------------------------
THERMOCHEMISTRY AT 298.15K
--------------------------

Temperature         ... 298.15 K
Pressure            ... 1.00 atm
Total Mass          ... 30.07 AMU

Throughout the following assumptions are being made:
  (1) The electronic state is orbitally nondegenerate
  (2) There are no thermally accessible electronically excited states
  (3) Hindered rotations indicated by low frequency modes are not
      treated as such but are treated as vibrations and this may
      cause some error
  (4) All equations used are the standard statistical mechanics
      equations for an ideal gas
  (5) All vibrations are strictly harmonic

freq.     902.19  E(vib)   ...       0.03
freq.     902.54  E(vib)   ...       0.03
freq.     992.11  E(vib)   ...       0.02
freq.    1168.85  E(vib)   ...       0.01
freq.    1168.98  E(vib)   ...       0.01
freq.    1410.01  E(vib)   ...       0.00
freq.    1449.71  E(vib)   ...       0.00
freq.    1513.01  E(vib)   ...       0.00
freq.    1513.11  E(vib)   ...       0.00
freq.    1521.54  E(vib)   ...       0.00
freq.    1521.60  E(vib)   ...       0.00
freq.    3003.48  E(vib)   ...       0.00
freq.    3010.82  E(vib)   ...       0.00
freq.    3055.51  E(vib)   ...       0.00
freq.    3055.84  E(vib)   ...       0.00
freq.    3077.75  E(vib)   ...       0.00
freq.    3078.05  E(vib)   ...       0.00

------------
INNER ENERGY
------------

The inner energy is: U= E(el) + E(ZPE) + E(vib) + E(rot) + E(trans)
    E(el)   - is the total energy from the electronic structure calculation
              = E(kin-el) + E(nuc-el) + E(el-el) + E(nuc-nuc)
    E(ZPE)  - the the zero temperature vibrational energy from the frequency calculation
    E(vib)  - the the finite temperature correction to E(ZPE) due to population
              of excited vibrational states
    E(rot)  - is the rotational thermal energy
    E(trans)- is the translational thermal energy

Summary of contributions to the inner energy U:
Electronic energy                ...    -79.78389416 Eh
Zero point energy                ...      0.07368758 Eh      46.24 kcal/mol
Thermal vibrational correction   ...      0.00021450 Eh       0.13 kcal/mol
Thermal rotational correction    ...      0.00141627 Eh       0.89 kcal/mol
Thermal translational correction ...      0.00141627 Eh       0.89 kcal/mol
-----------------------------------------------------------------------
Total thermal energy                    -79.70715954 Eh

Summary of corrections to the electronic energy:
(perhaps to be used in another calculation)
Total thermal correction                  0.00304704 Eh       1.91 kcal/mol
Non-thermal (ZPE) correction              0.07368758 Eh      46.24 kcal/mol
-----------------------------------------------------------------------
Total correction                          0.07673462 Eh      48.15 kcal/mol

--------
ENTHALPY
--------

The enthalpy is H = U + kB*T
                kB is Boltzmann's constant
Total free energy                 ...    -79.70715954 Eh
Thermal Enthalpy correction       ...      0.00094421 Eh       0.59 kcal/mol
-----------------------------------------------------------------------
Total Enthalpy                    ...    -79.70621533 Eh

Note: Only C1 symmetry has been detected, increase convergence thresholds
      if your molecule has a higher symmetry. Symmetry factor of 1.0 is
      used for the rotational entropy correction.

Note: Rotational entropy computed according to Herzberg
Infrared and Raman Spectra, Chapter V,1, Van Nostrand Reinhold, 1945
Point Group:  C1, Symmetry Number:   1
Rotational constants in cm-1:     2.734987     0.660581     0.660577

Vibrational entropy computed according to the QRRHO of S. Grimme
Chem.Eur.J. 2012 18 9955

-------
ENTROPY
-------

The entropy contributions are T*S = T*(S(el)+S(vib)+S(rot)+S(trans))
     S(el)   - electronic entropy
     S(vib)  - vibrational entropy
     S(rot)  - rotational entropy
     S(trans)- translational entropy
The entropies will be listed as mutliplied by the temperature to get
units of energy

Electronic entropy                ...      0.00000000 Eh      0.00 kcal/mol
Vibrational entropy               ...      0.00025807 Eh      0.16 kcal/mol
Rotational entropy                ...      0.00942732 Eh      5.92 kcal/mol
Translational entropy             ...      0.01716939 Eh     10.77 kcal/mol
-----------------------------------------------------------------------
Final entropy term                ...      0.02685478 Eh     16.85 kcal/mol

In case the symmetry of your molecule has not been determined correctly
or in case you have a reason to use a different symmetry number we print
out the resulting rotational entropy values for sn=1,12 :
 --------------------------------------------------------
|  sn= 1 | S(rot)=       0.00942732 Eh      5.92 kcal/mol|
|  sn= 2 | S(rot)=       0.00877287 Eh      5.51 kcal/mol|
|  sn= 3 | S(rot)=       0.00839003 Eh      5.26 kcal/mol|
|  sn= 4 | S(rot)=       0.00811841 Eh      5.09 kcal/mol|
|  sn= 5 | S(rot)=       0.00790772 Eh      4.96 kcal/mol|
|  sn= 6 | S(rot)=       0.00773558 Eh      4.85 kcal/mol|
|  sn= 7 | S(rot)=       0.00759003 Eh      4.76 kcal/mol|
|  sn= 8 | S(rot)=       0.00746395 Eh      4.68 kcal/mol|
|  sn= 9 | S(rot)=       0.00735274 Eh      4.61 kcal/mol|
|  sn=10 | S(rot)=       0.00725326 Eh      4.55 kcal/mol|
|  sn=11 | S(rot)=       0.00716327 Eh      4.50 kcal/mol|
|  sn=12 | S(rot)=       0.00708112 Eh      4.44 kcal/mol|
 --------------------------------------------------------

-------------------
GIBBS FREE ENERGY
-------------------

The Gibbs free energy is G = H - T*S

Total enthalpy                    ...    -79.70621533 Eh
Total entropy correction          ...     -0.02685478 Eh    -16.85 kcal/mol
-----------------------------------------------------------------------
Final Gibbs free energy         ...    -79.73307012 Eh

For completeness - the Gibbs free energy minus the electronic energy
G-E(el)                           ...      0.05082405 Eh     31.89 kcal/mol

                             ****ORCA TERMINATED NORMALLY****
TOTAL RUN TIME: 0 days 0 hours 0 minutes 25 seconds 330 msec
