                         Program Version 4.2.1 -  RELEASE  -
|  1> ! B97-3c Opt Freq TightOpt TightSCF
|  2>
|  3> %pal
|  4>  nprocs 2
|  5> end
|  6>
|  7> *xyz 0 1
|  8> C       -7.6303620157      2.5210358634     -0.0000002742
|  9> C       -6.1276353058      2.6887606094     -0.0000003419
| 10> H       -7.9062737201      1.5279092312     -0.3668683585
| 11> H       -8.1006479178      3.2694010906     -0.6448263163
| 12> H       -8.0301624236      2.6378882983      1.0116939038
| 13> H       -5.7278348976      2.5719081717     -1.0116945195
| 14> H       -5.6573494039      1.9403953839      0.6448257023
| 15> H       -5.8517236015      3.6818872426      0.3668677398
| 16> *
| 17>
| 18>                          ****END OF INPUT****
 Total Charge           Charge          ....    0
 Multiplicity           Mult            ....    1
 Number of Electrons    NEL             ....   18
Dispersion correction           -0.007706031
FINAL SINGLE POINT ENERGY       -79.787815298240
Dispersion correction            ... done
Dispersion correction           -0.007687265
FINAL SINGLE POINT ENERGY       -79.788121550273
Dispersion correction            ... done
Dispersion correction           -0.007677953
FINAL SINGLE POINT ENERGY       -79.788160302294
Dispersion correction            ... done
FINAL SINGLE POINT ENERGY       -79.788168614107
Dispersion correction           -0.007675588
FINAL SINGLE POINT ENERGY       -79.788170397290
Dispersion correction            ... done
Dispersion correction           -0.007675991
FINAL SINGLE POINT ENERGY       -79.788170455788
Dispersion correction            ... done
                    ***********************HURRAY********************

CARTESIAN COORDINATES (ANGSTROEM)
---------------------------------
  C     -7.633588    2.520693   -0.000048
  C     -6.124410    2.689104    0.000047
  H     -7.925146    1.535366   -0.363240
  H     -8.117558    3.259536   -0.638459
  H     -8.047628    2.634298    1.001593
  H     -5.710369    2.575498   -1.001594
  H     -5.640439    1.950261    0.638459
  H     -5.832852    3.674431    0.363239

 Multiplicity           Mult            ....    1
 Number of Electrons    NEL             ....   18
 Basis Dimension        Dim             ....   56

ORBITAL ENERGIES
----------------

  NO   OCC          E(Eh)            E(eV)
   0   2.0000      -9.876616      -268.7564
   1   2.0000      -9.876499      -268.7532
   2   2.0000      -0.685296       -18.6478
   3   2.0000      -0.555870       -15.1260
   4   2.0000      -0.387734       -10.5508
   5   2.0000      -0.387700       -10.5498
   6   2.0000      -0.327133        -8.9017
   7   2.0000      -0.300396        -8.1742
   8   2.0000      -0.300388        -8.1740
   9   0.0000       0.035469         0.9652
  10   0.0000       0.073851         2.0096
  11   0.0000       0.101073         2.7503
  12   0.0000       0.101289         2.7562
  13   0.0000       0.115098         3.1320

MULLIKEN ATOMIC CHARGES
-----------------------
   0 C :   -0.477055
   1 C :   -0.477055
   2 H :    0.159498
   3 H :    0.158533
   4 H :    0.159024
   5 H :    0.159024
   6 H :    0.158533
   7 H :    0.159498
Sum of atomic charges:   -0.0000000

LOEWDIN ATOMIC CHARGES
----------------------
   0 C :   -0.443437
   1 C :   -0.443437
   2 H :    0.147850
   3 H :    0.147786
   4 H :    0.147801
   5 H :    0.147801
   6 H :    0.147786
   7 H :    0.147850

  Mayer bond orders larger than 0.100000
B(  0-C ,  1-C ) :   0.9549 B(  0-C ,  2-H ) :   0.9656 B(  0-C ,  3-H ) :   0.9653
B(  0-C ,  4-H ) :   0.9660 B(  1-C ,  5-H ) :   0.9660 B(  1-C ,  6-H ) :   0.9653
B(  1-C ,  7-H ) :   0.9656

Dispersion correction           -0.007676063
FINAL SINGLE POINT ENERGY       -79.788170457691

DIPOLE MOMENT
-------------
                                X             Y             Z
Electronic contribution:     -0.00000      -0.00000       0.00000
Nuclear contribution   :      0.00000      -0.00000      -0.00000
                        -----------------------------------------
Total Dipole Moment    :      0.00000      -0.00000       0.00000
                        -----------------------------------------
Magnitude (a.u.)       :      0.00000
Magnitude (Debye)      :      0.00000

Dispersion correction in the Hessian             ... done   (      1.1 sec)

VIBRATIONAL FREQUENCIES
-----------------------

Scaling factor for frequencies =  1.000000000  (already applied!)

   0:         0.00 cm**-1
   1:         0.00 cm**-1
   2:         0.00 cm**-1
   3:         0.00 cm**-1
   4:         0.00 cm**-1
   5:         0.00 cm**-1
   6:       307.57 cm**-1
   7:       825.42 cm**-1
   8:       826.14 cm**-1
   9:       996.94 cm**-1
  10:      1216.71 cm**-1
  11:      1216.96 cm**-1
  12:      1408.49 cm**-1
  13:      1425.03 cm**-1
  14:      1511.25 cm**-1
  15:      1511.63 cm**-1
  16:      1514.41 cm**-1
  17:      1514.74 cm**-1
  18:      2993.92 cm**-1
  19:      2994.57 cm**-1
  20:      3043.57 cm**-1
  21:      3043.89 cm**-1
  22:      3071.11 cm**-1
  23:      3071.45 cm**-1

IR SPECTRUM
-----------

 Mode    freq (cm**-1)   T**2         TX         TY         TZ
-------------------------------------------------------------------
   6:       307.57    0.000095  (  0.005372  -0.007276  -0.003604)
   7:       825.42    4.974329  ( -0.218108   1.921268  -1.111525)
   8:       826.14    4.933584  ( -0.118037   1.105009   1.923176)
   9:       996.94    0.000000  (  0.000000   0.000000   0.000000)
  10:      1216.71    0.000000  ( -0.000000  -0.000000   0.000000)
  11:      1216.96    0.000000  ( -0.000000  -0.000000   0.000000)
  12:      1408.49    2.704586  ( -1.634771  -0.179161   0.003423)
  13:      1425.03    0.000000  ( -0.000000  -0.000000   0.000000)
  14:      1511.25    0.000000  ( -0.000000   0.000002   0.000001)
  15:      1511.63    0.000000  (  0.000000  -0.000001   0.000002)
  16:      1514.41   12.571360  ( -0.285512   2.551682   2.445151)
  17:      1514.74   12.566917  (  0.255492  -2.425564   2.572602)
  18:      2993.92    0.000000  (  0.000077   0.000010   0.000001)
  19:      2994.57   77.547909  (  8.749193   0.999765   0.003135)
  20:      3043.57    0.000000  ( -0.000002   0.000004   0.000002)
  21:      3043.89    0.000000  (  0.000000   0.000001  -0.000001)
  22:      3071.11   90.946360  ( -0.990456   8.583965   4.034961)
  23:      3071.45   91.070733  ( -0.436833   4.004775  -8.651109)

--------------------------
THERMOCHEMISTRY AT 298.15K
--------------------------

Temperature         ... 298.15 K
Pressure            ... 1.00 atm
Total Mass          ... 30.07 AMU

Throughout the following assumptions are being made:
  (1) The electronic state is orbitally nondegenerate
  (2) There are no thermally accessible electronically excited states
  (3) Hindered rotations indicated by low frequency modes are not
      treated as such but are treated as vibrations and this may
      cause some error
  (4) All equations used are the standard statistical mechanics
      equations for an ideal gas
  (5) All vibrations are strictly harmonic

freq.     307.57  E(vib)   ...       0.26
freq.     825.42  E(vib)   ...       0.04
freq.     826.14  E(vib)   ...       0.04
freq.     996.94  E(vib)   ...       0.02
freq.    1216.71  E(vib)   ...       0.01
freq.    1216.96  E(vib)   ...       0.01
freq.    1408.49  E(vib)   ...       0.00
freq.    1425.03  E(vib)   ...       0.00
freq.    1511.25  E(vib)   ...       0.00
freq.    1511.63  E(vib)   ...       0.00
freq.    1514.41  E(vib)   ...       0.00
freq.    1514.74  E(vib)   ...       0.00
freq.    2993.92  E(vib)   ...       0.00
freq.    2994.57  E(vib)   ...       0.00
freq.    3043.57  E(vib)   ...       0.00
freq.    3043.89  E(vib)   ...       0.00
freq.    3071.11  E(vib)   ...       0.00
freq.    3071.45  E(vib)   ...       0.00

------------
INNER ENERGY
------------

The inner energy is: U= E(el) + E(ZPE) + E(vib) + E(rot) + E(trans)
    E(el)   - is the total energy from the electronic structure calculation
              = E(kin-el) + E(nuc-el) + E(el-el) + E(nuc-nuc)
    E(ZPE)  - the the zero temperature vibrational energy from the frequency calculation
    E(vib)  - the the finite temperature correction to E(ZPE) due to population
              of excited vibrational states
    E(rot)  - is the rotational thermal energy
    E(trans)- is the translational thermal energy

Summary of contributions to the inner energy U:
Electronic energy                ...    -79.78817046 Eh
Zero point energy                ...      0.07402631 Eh      46.45 kcal/mol
Thermal vibrational correction   ...      0.00065453 Eh       0.41 kcal/mol
Thermal rotational correction    ...      0.00141627 Eh       0.89 kcal/mol
Thermal translational correction ...      0.00141627 Eh       0.89 kcal/mol
-----------------------------------------------------------------------
Total thermal energy                    -79.71065708 Eh

Summary of corrections to the electronic energy:
(perhaps to be used in another calculation)
Total thermal correction                  0.00348707 Eh       2.19 kcal/mol
Non-thermal (ZPE) correction              0.07402631 Eh      46.45 kcal/mol
-----------------------------------------------------------------------
Total correction                          0.07751338 Eh      48.64 kcal/mol

--------
ENTHALPY
--------

The enthalpy is H = U + kB*T
                kB is Boltzmann's constant
Total free energy                 ...    -79.71065708 Eh
Thermal Enthalpy correction       ...      0.00094421 Eh       0.59 kcal/mol
-----------------------------------------------------------------------
Total Enthalpy                    ...    -79.70971287 Eh

Note: Rotational entropy computed according to Herzberg
Infrared and Raman Spectra, Chapter V,1, Van Nostrand Reinhold, 1945
Point Group:  Ci, Symmetry Number:   1
Rotational constants in cm-1:     2.710061     0.672356     0.672351

Vibrational entropy computed according to the QRRHO of S. Grimme
Chem.Eur.J. 2012 18 9955

-------
ENTROPY
-------

The entropy contributions are T*S = T*(S(el)+S(vib)+S(rot)+S(trans))
     S(el)   - electronic entropy
     S(vib)  - vibrational entropy
     S(rot)  - rotational entropy
     S(trans)- translational entropy
The entropies will be listed as mutliplied by the temperature to get
units of energy

Electronic entropy                ...      0.00000000 Eh      0.00 kcal/mol
Vibrational entropy               ...      0.00095237 Eh      0.60 kcal/mol
Rotational entropy                ...      0.00941496 Eh      5.91 kcal/mol
Translational entropy             ...      0.01716939 Eh     10.77 kcal/mol
-----------------------------------------------------------------------
Final entropy term                ...      0.02753672 Eh     17.28 kcal/mol

In case the symmetry of your molecule has not been determined correctly
or in case you have a reason to use a different symmetry number we print
out the resulting rotational entropy values for sn=1,12 :
 --------------------------------------------------------
|  sn= 1 | S(rot)=       0.00941496 Eh      5.91 kcal/mol|
|  sn= 2 | S(rot)=       0.00876051 Eh      5.50 kcal/mol|
|  sn= 3 | S(rot)=       0.00837767 Eh      5.26 kcal/mol|
|  sn= 4 | S(rot)=       0.00810605 Eh      5.09 kcal/mol|
|  sn= 5 | S(rot)=       0.00789536 Eh      4.95 kcal/mol|
|  sn= 6 | S(rot)=       0.00772322 Eh      4.85 kcal/mol|
|  sn= 7 | S(rot)=       0.00757767 Eh      4.76 kcal/mol|
|  sn= 8 | S(rot)=       0.00745159 Eh      4.68 kcal/mol|
|  sn= 9 | S(rot)=       0.00734038 Eh      4.61 kcal/mol|
|  sn=10 | S(rot)=       0.00724090 Eh      4.54 kcal/mol|
|  sn=11 | S(rot)=       0.00715091 Eh      4.49 kcal/mol|
|  sn=12 | S(rot)=       0.00706876 Eh      4.44 kcal/mol|
 --------------------------------------------------------

-------------------
GIBBS FREE ENERGY
-------------------

The Gibbs free energy is G = H - T*S

Total enthalpy                    ...    -79.70971287 Eh
Total entropy correction          ...     -0.02753672 Eh    -17.28 kcal/mol
-----------------------------------------------------------------------
Final Gibbs free energy         ...    -79.73724959 Eh

For completeness - the Gibbs free energy minus the electronic energy
G-E(el)                           ...      0.05092087 Eh     31.95 kcal/mol

                             ****ORCA TERMINATED NORMALLY****
TOTAL RUN TIME: 0 days 0 hours 0 minutes 45 seconds 179 msec
