                         Program Version 4.2.1 -  RELEASE  -
|  1> ! BLYP D4 def2-TZVP RI def2/J Opt TightOpt Freq TightSCF Grid4 FinalGrid5 PrintBasis PrintMOs
|  2> %maxcore 1150
|  3>
|  4> * xyzfile 0 1 init.xyz
|  5>
|  6> %cpcm
|  7>  smd true
|  8>  smdsolvent "water"
|  9> end
| 10>
| 11>                          ****END OF INPUT****
 Total Charge           Charge          ....    0
 Multiplicity           Mult            ....    1
 Number of Electrons    NEL             ....    2
Dispersion correction           -0.000446536
FINAL SINGLE POINT ENERGY        -1.142057815802
Dispersion correction            ...
Dispersion correction           -0.000241397
FINAL SINGLE POINT ENERGY        -1.162390318397
Dispersion correction            ...
Dispersion correction           -0.000179064
FINAL SINGLE POINT ENERGY        -1.163746598433
Dispersion correction            ...
FINAL SINGLE POINT ENERGY        -1.166742589655
FINAL SINGLE POINT ENERGY        -1.166928660948
Dispersion correction           -0.000180058
FINAL SINGLE POINT ENERGY        -1.166936458240
Dispersion correction            ...
Dispersion correction           -0.000180066
FINAL SINGLE POINT ENERGY        -1.166936494497
Dispersion correction            ...
                    ***********************HURRAY********************

CARTESIAN COORDINATES (ANGSTROEM)
---------------------------------
  H      0.000000    0.000000    0.125985
  H      0.000000    0.000000    0.874015

 Multiplicity           Mult            ....    1
 Number of Electrons    NEL             ....    2
 Basis Dimension        Dim             ....   12

ORBITAL ENERGIES
----------------

  NO   OCC          E(Eh)            E(eV)
   0   2.0000      -0.371154       -10.0996
   1   0.0000       0.047794         1.3006
   2   0.0000       0.187062         5.0902
   3   0.0000       0.448674        12.2090
   4   0.0000       1.125996        30.6399
   5   0.0000       1.125996        30.6399

------------------
MOLECULAR ORBITALS
------------------
                      0         1         2         3         4         5
                  -0.37115   0.04779   0.18706   0.44867   1.12600   1.12600
                   2.00000   0.00000   0.00000   0.00000   0.00000   0.00000
                  --------  --------  --------  --------  --------  --------
  0H   1s        -0.199335 -0.099398 -0.083723  0.140202  0.000000 -0.000000
  0H   2s        -0.267076 -0.083042 -0.674902  1.792963 -0.000000  0.000000
  0H   3s        -0.148460 -1.991372  0.828131 -2.461856 -0.000000 -0.000000
  0H   1pz       -0.018177  0.049685 -0.011953  0.103532 -0.000000 -0.000000
  0H   1px        0.000000  0.000000  0.000000  0.000000  0.532371 -0.247973
  0H   1py        0.000000  0.000000  0.000000  0.000000 -0.247973 -0.532371
  1H   1s        -0.199335  0.099398 -0.083723 -0.140202 -0.000000 -0.000000
  1H   2s        -0.267076  0.083042 -0.674902 -1.792963  0.000000 -0.000000
  1H   3s        -0.148460  1.991372  0.828131  2.461856  0.000000  0.000000
  1H   1pz        0.018177  0.049685  0.011953  0.103532 -0.000000  0.000000
  1H   1px        0.000000  0.000000 -0.000000 -0.000000  0.532371 -0.247973
  1H   1py       -0.000000 -0.000000 -0.000000  0.000000 -0.247973 -0.532371
                      6         7         8         9        10        11
                   1.56905   1.89385   1.89385   1.95919   2.35670   3.34163
                   0.00000   0.00000   0.00000   0.00000   0.00000   0.00000
                  --------  --------  --------  --------  --------  --------
  0H   1s        -0.378988  0.000000  0.000000 -0.701006  1.067124 -1.009894
  0H   2s         0.783869  0.000000 -0.000000  3.150476 -0.971471 -1.672020
  0H   3s        -0.390609 -0.000000  0.000000 -1.628829  0.348022  0.313129
  0H   1pz       -0.561941 -0.000000 -0.000000  1.124180 -0.419823 -1.877011
  0H   1px       -0.000000  0.584017 -0.753290 -0.000000 -0.000000  0.000000
  0H   1py       -0.000000  0.753290  0.584017  0.000000 -0.000000 -0.000000
  1H   1s        -0.378988  0.000000 -0.000000  0.701006  1.067124  1.009894
  1H   2s         0.783869 -0.000000  0.000000 -3.150476 -0.971471  1.672020
  1H   3s        -0.390609 -0.000000 -0.000000  1.628829  0.348022 -0.313129
  1H   1pz        0.561941  0.000000 -0.000000  1.124180  0.419823 -1.877011
  1H   1px        0.000000 -0.584017  0.753290  0.000000  0.000000 -0.000000
  1H   1py        0.000000 -0.753290 -0.584017 -0.000000  0.000000  0.000000

MULLIKEN ATOMIC CHARGES
-----------------------
   0 H :   -0.000000
   1 H :    0.000000
Sum of atomic charges:   -0.0000000

LOEWDIN ATOMIC CHARGES
----------------------
   0 H :   -0.000000
   1 H :    0.000000

  Mayer bond orders larger than 0.100000
B(  0-H ,  1-H ) :   1.0000

Dispersion correction           -0.000180066
FINAL SINGLE POINT ENERGY        -1.166936494260

DIPOLE MOMENT
-------------
                                X             Y             Z
Electronic contribution:      0.00000      -0.00000       0.00000
Nuclear contribution   :      0.00000       0.00000      -0.00000
                        -----------------------------------------
Total Dipole Moment    :      0.00000      -0.00000       0.00000
                        -----------------------------------------
Magnitude (a.u.)       :      0.00000
Magnitude (Debye)      :      0.00000

Dispersion correction in the Hessian             ...

VIBRATIONAL FREQUENCIES
-----------------------

Scaling factor for frequencies =  1.000000000  (already applied!)

   0:         0.00 cm**-1
   1:         0.00 cm**-1
   2:         0.00 cm**-1
   3:         0.00 cm**-1
   4:         0.00 cm**-1
   5:      4341.93 cm**-1

IR SPECTRUM
-----------

 Mode    freq (cm**-1)   T**2         TX         TY         TZ
-------------------------------------------------------------------
   5:      4341.93    0.000000  ( -0.000000   0.000000   0.000000)

--------------------------
THERMOCHEMISTRY AT 298.15K
--------------------------

Temperature         ... 298.15 K
Pressure            ... 1.00 atm
Total Mass          ... 2.02 AMU
The molecule is recognized as being linear

Throughout the following assumptions are being made:
  (1) The electronic state is orbitally nondegenerate
  (2) There are no thermally accessible electronically excited states
  (3) Hindered rotations indicated by low frequency modes are not
      treated as such but are treated as vibrations and this may
      cause some error
  (4) All equations used are the standard statistical mechanics
      equations for an ideal gas
  (5) All vibrations are strictly harmonic

freq.    4341.93  E(vib)   ...       0.00

------------
INNER ENERGY
------------

The inner energy is: U= E(el) + E(ZPE) + E(vib) + E(rot) + E(trans)
    E(el)   - is the total energy from the electronic structure calculation
              = E(kin-el) + E(nuc-el) + E(el-el) + E(nuc-nuc)
    E(ZPE)  - the the zero temperature vibrational energy from the frequency calculation
    E(vib)  - the the finite temperature correction to E(ZPE) due to population
              of excited vibrational states
    E(rot)  - is the rotational thermal energy
    E(trans)- is the translational thermal energy

Summary of contributions to the inner energy U:
Electronic energy                ...     -1.16693649 Eh
Zero point energy                ...      0.00989165 Eh       6.21 kcal/mol
Thermal vibrational correction   ...      0.00000000 Eh       0.00 kcal/mol
Thermal rotational correction    ...      0.00094418 Eh       0.59 kcal/mol
Thermal translational correction ...      0.00141627 Eh       0.89 kcal/mol
-----------------------------------------------------------------------
Total thermal energy                     -1.15468439 Eh

Summary of corrections to the electronic energy:
(perhaps to be used in another calculation)
Total thermal correction                  0.00236045 Eh       1.48 kcal/mol
Non-thermal (ZPE) correction              0.00989165 Eh       6.21 kcal/mol
-----------------------------------------------------------------------
Total correction                          0.01225210 Eh       7.69 kcal/mol

--------
ENTHALPY
--------

The enthalpy is H = U + kB*T
                kB is Boltzmann's constant
Total free energy                 ...     -1.15468439 Eh
Thermal Enthalpy correction       ...      0.00094421 Eh       0.59 kcal/mol
-----------------------------------------------------------------------
Total Enthalpy                    ...     -1.15374018 Eh

Note: Rotational entropy computed according to Herzberg
Infrared and Raman Spectra, Chapter V,1, Van Nostrand Reinhold, 1945
Point Group:  Dinfh, Symmetry Number:   2
Rotational constants in cm-1:     0.000000    59.776230    59.776230

Vibrational entropy computed according to the QRRHO of S. Grimme
Chem.Eur.J. 2012 18 9955

-------
ENTROPY
-------

The entropy contributions are T*S = T*(S(el)+S(vib)+S(rot)+S(trans))
     S(el)   - electronic entropy
     S(vib)  - vibrational entropy
     S(rot)  - rotational entropy
     S(trans)- translational entropy
The entropies will be listed as mutliplied by the temperature to get
units of energy

Electronic entropy                ...      0.00000000 Eh      0.00 kcal/mol
Vibrational entropy               ...     -0.00000000 Eh     -0.00 kcal/mol
Rotational entropy                ...      0.00146353 Eh      0.92 kcal/mol
Translational entropy             ...      0.01334204 Eh      8.37 kcal/mol
-----------------------------------------------------------------------
Final entropy term                ...      0.01480557 Eh      9.29 kcal/mol

In case the symmetry of your molecule has not been determined correctly
or in case you have a reason to use a different symmetry number we print
out the resulting rotational entropy values for sn=1,12 :
 --------------------------------------------------------
|  sn= 1 | S(rot)=             -inf Eh      -inf kcal/mol|
|  sn= 2 | S(rot)=             -inf Eh      -inf kcal/mol|
|  sn= 3 | S(rot)=             -inf Eh      -inf kcal/mol|
|  sn= 4 | S(rot)=             -inf Eh      -inf kcal/mol|
|  sn= 5 | S(rot)=             -inf Eh      -inf kcal/mol|
|  sn= 6 | S(rot)=             -inf Eh      -inf kcal/mol|
|  sn= 7 | S(rot)=             -inf Eh      -inf kcal/mol|
|  sn= 8 | S(rot)=             -inf Eh      -inf kcal/mol|
|  sn= 9 | S(rot)=             -inf Eh      -inf kcal/mol|
|  sn=10 | S(rot)=             -inf Eh      -inf kcal/mol|
|  sn=11 | S(rot)=             -inf Eh      -inf kcal/mol|
|  sn=12 | S(rot)=             -inf Eh      -inf kcal/mol|
 --------------------------------------------------------

-------------------
GIBBS FREE ENERGY
-------------------

The Gibbs free energy is G = H - T*S

Total enthalpy                    ...     -1.15374018 Eh
Total entropy correction          ...     -0.01480557 Eh     -9.29 kcal/mol
-----------------------------------------------------------------------
Final Gibbs free energy         ...     -1.16854575 Eh

For completeness - the Gibbs free energy minus the electronic energy
G-E(el)                           ...     -0.00160926 Eh     -1.01 kcal/mol

                             ****ORCA TERMINATED NORMALLY****
TOTAL RUN TIME: 0 days 0 hours 0 minutes 15 seconds 534 msec
