                         Program Version 4.2.1 -  RELEASE  -
|  1> ! DLPNO-CCSD(T) gCP(HF/TZ) def2-TZVP def2-TZVP/C TightSCF Grid5 NoFinalGrid GridX6 NoFinalGridX PrintBasis PrintMOs NBO
|  2>
|  3> %pal
|  4>  nprocs 8
|  5> end
|  6>
|  7> *xyzfile 0 1 init.xyz
|  8>
|  9>                          ****END OF INPUT****

CARTESIAN COORDINATES (ANGSTROEM)
---------------------------------
  N     -2.446545   -2.767923    0.015326
  H     -1.436938   -2.815621   -0.009350
  H     -2.757752   -3.602020    0.494514
  H     -2.757755   -2.858766   -0.942319

 Total Charge           Charge          ....    0
 Multiplicity           Mult            ....    1
 Number of Electrons    NEL             ....   10
 Basis Dimension        Dim             ....   49

ORBITAL ENERGIES
----------------

  NO   OCC          E(Eh)            E(eV)
   0   2.0000     -15.537364      -422.7932
   1   2.0000      -1.141760       -31.0689
   2   2.0000      -0.626822       -17.0567
   3   2.0000      -0.626816       -17.0565
   4   2.0000      -0.429279       -11.6813
   5   0.0000       0.128283         3.4907
   6   0.0000       0.213134         5.7997
   7   0.0000       0.213135         5.7997
   8   0.0000       0.442623        12.0444
   9   0.0000       0.442626        12.0445

------------------
MOLECULAR ORBITALS
------------------
                      0         1         2         3         4         5
                 -15.53736  -1.14176  -0.62682  -0.62682  -0.42928   0.12828
                   2.00000   2.00000   2.00000   2.00000   2.00000   0.00000
                  --------  --------  --------  --------  --------  --------
  0N   1s        -0.448948  0.091914  0.000000  0.000001  0.029501 -0.031640
  0N   2s        -0.630192  0.214589  0.000000  0.000001  0.070137 -0.082660
  0N   3s        -0.020178 -0.312417 -0.000000 -0.000002 -0.112204  0.264332
  0N   4s         0.007370 -0.403936 -0.000000 -0.000003 -0.187381 -0.474240
  0N   5s        -0.005155 -0.112720 -0.000000 -0.000002 -0.129044  2.535674
  0N   1pz        0.000797  0.024715 -0.294507  0.051460 -0.170017 -0.036985
  0N   1px       -0.000613 -0.019019  0.000700  0.312734  0.130828  0.028462
  0N   1py        0.001541  0.047778  0.152623  0.097865 -0.328670 -0.071498
  0N   2pz       -0.000405  0.023055 -0.252851  0.044182 -0.156873  0.006753
  0N   2px        0.000312 -0.017742  0.000601  0.268502  0.120714 -0.005197
  0N   2py       -0.000783  0.044569  0.131036  0.084023 -0.303260  0.013054
  0N   3pz        0.000371  0.002851 -0.113464  0.019826 -0.141020 -0.206700
  0N   3px       -0.000285 -0.002194  0.000270  0.120489  0.108516  0.159068
  0N   3py        0.000716  0.005512  0.058801  0.037705 -0.272615 -0.399585
  0N   1dz2      -0.000002 -0.000845  0.011113 -0.009019 -0.000688 -0.000819
  0N   1dxz      -0.000002 -0.000967  0.005758 -0.002905 -0.000788 -0.000937
  0N   1dyz       0.000005  0.002428  0.009105  0.001881  0.001979  0.002355
  0N   1dx2y2    -0.000004 -0.001975  0.006456  0.012872 -0.001610 -0.001915
  0N   1dxy      -0.000004 -0.001869 -0.002994 -0.005584 -0.001523 -0.001812
  0N   2dz2      -0.000015 -0.000676  0.019690 -0.009192 -0.005763 -0.003602
  0N   2dxz      -0.000017 -0.000774 -0.000072 -0.008068 -0.006596 -0.004121
  0N   2dyz       0.000044  0.001944  0.016107 -0.002596  0.016570  0.010353
  0N   2dx2y2    -0.000035 -0.001581  0.011423  0.019443 -0.013478 -0.008420
  0N   2dxy      -0.000034 -0.001496 -0.000007 -0.015598 -0.012751 -0.007966
  0N   1f0        0.000139  0.003641 -0.000462  0.001091 -0.002040  0.004343
  0N   1f+1       0.000178  0.003777 -0.001625 -0.000330  0.000407  0.005553
  0N   1f-1       0.000030  0.000688  0.001461 -0.000002 -0.000106  0.000937
  0N   1f+2       0.000087  0.002600  0.000274  0.001464 -0.002391  0.002715
  0N   1f-2      -0.000065 -0.000690 -0.001457 -0.001139 -0.002546 -0.002039
  0N   1f+3       0.000154  0.004079  0.001254 -0.001754 -0.002417  0.004811
  0N   1f-3       0.000025  0.000169 -0.000113 -0.000978  0.001307  0.000783
  1H   1s        -0.000144 -0.087174  0.000372  0.165846  0.043927 -0.008695
  1H   2s         0.000039 -0.084243  0.000531  0.237100  0.052481  0.063279
  1H   3s         0.000859 -0.006634  0.000177  0.079056  0.022300 -1.140372
  1H   1pz        0.000034  0.000429 -0.011047  0.002650 -0.007807  0.000543
  1H   1px       -0.000232  0.016696 -0.000056 -0.024851 -0.003366 -0.044092
  1H   1py        0.000066  0.000830  0.005729  0.005061 -0.015092  0.001050
  2H   1s        -0.000144 -0.087174 -0.143813 -0.082600  0.043928 -0.008696
  2H   2s         0.000039 -0.084242 -0.205600 -0.118088  0.052483  0.063280
  2H   3s         0.000859 -0.006634 -0.068551 -0.039374  0.022301 -1.140370
  2H   1pz       -0.000071  0.009089  0.004219  0.010700 -0.012574 -0.021670
  2H   1px        0.000042 -0.006005 -0.009908  0.006027  0.009132  0.014139
  2H   1py        0.000229 -0.012686 -0.020282 -0.011266 -0.007651  0.035721
  3H   1s        -0.000144 -0.087174  0.143441 -0.083244  0.043928 -0.008696
  3H   2s         0.000039 -0.084242  0.205068 -0.119009  0.052483  0.063280
  3H   3s         0.000859 -0.006634  0.068374 -0.039681  0.022301 -1.140370
  3H   1pz        0.000228 -0.015606  0.018922 -0.015462  0.001021  0.041675
  3H   1px        0.000042 -0.006006  0.009935  0.005982  0.009132  0.014139
  3H   1py        0.000075  0.000088  0.008285  0.002186 -0.014683  0.002953
                      6         7         8         9        10        11
                   0.21313   0.21314   0.44262   0.44263   0.50337   0.62998
                   0.00000   0.00000   0.00000   0.00000   0.00000   0.00000
                  --------  --------  --------  --------  --------  --------
  0N   1s         0.000000  0.000000  0.000000 -0.000000 -0.026451  0.058152
  0N   2s         0.000000  0.000001  0.000001 -0.000000 -0.053922  0.116520
  0N   3s        -0.000000 -0.000001 -0.000002  0.000000 -0.094978  0.277506
  0N   4s         0.000000  0.000000  0.000000 -0.000000  1.003600 -3.230836
  0N   5s        -0.000000 -0.000011 -0.000022  0.000000 -0.211482  6.135147
  0N   1pz       -0.172435  0.030120  0.001365  0.007811  0.097314  0.056769
  0N   1px        0.000399  0.183106  0.008296 -0.000018 -0.074884 -0.043685
  0N   1py        0.089357  0.057306  0.002596 -0.004048  0.188125  0.109743
  0N   2pz        0.083134 -0.014520  0.040656  0.232722  0.263410  0.201079
  0N   2px       -0.000192 -0.088271  0.247111 -0.000548 -0.202690 -0.154734
  0N   2py       -0.043081 -0.027626  0.077330 -0.120602  0.509214  0.388718
  0N   3pz       -0.898042  0.156863  0.290296  1.661580 -0.594704 -0.528270
  0N   3px        0.002077  0.953605  1.764342 -0.003913  0.457656  0.406539
  0N   3py        0.465372  0.298447  0.552156 -0.861072 -1.149660 -1.021232
  0N   1dz2      -0.000734  0.001878  0.020691  0.023872  0.000933 -0.000982
  0N   1dxz      -0.002322 -0.000361  0.005672  0.014362  0.001068 -0.001124
  0N   1dyz      -0.000606 -0.001245 -0.005191  0.019563 -0.002682  0.002825
  0N   1dx2y2    -0.000429 -0.001486 -0.028304  0.013872  0.002182 -0.002297
  0N   1dxy       0.001199 -0.000709  0.010887 -0.007460  0.002064 -0.002173
  0N   2dz2      -0.054360  0.057572 -0.143503 -0.174468  0.003583 -0.005000
  0N   2dxz      -0.048530  0.008414 -0.044779 -0.093287  0.004100 -0.005721
  0N   2dyz      -0.044586 -0.020954  0.031198 -0.142951 -0.010303  0.014372
  0N   2dx2y2    -0.031609 -0.069636  0.203037 -0.101365  0.008382 -0.011688
  0N   2dxy       0.025148  0.016006 -0.086054  0.048498  0.007925 -0.011059
  0N   1f0        0.002944 -0.008241  0.017741  0.006571 -0.006618  0.010528
  0N   1f+1       0.006792  0.003761 -0.007549  0.016974 -0.008314  0.011640
  0N   1f-1       0.003099 -0.002373  0.004082  0.000602 -0.001411  0.002069
  0N   1f+2      -0.004730 -0.003165  0.010200 -0.009041 -0.004192  0.007255
  0N   1f-2       0.006079  0.001595 -0.006442  0.015199  0.002935 -0.002828
  0N   1f+3      -0.005240  0.006745 -0.017310 -0.013096 -0.007340  0.011758
  0N   1f-3      -0.003775 -0.004437  0.004474 -0.006139 -0.001111  0.000888
  1H   1s        -0.000019 -0.008944 -0.092422  0.000205 -0.010782  0.047143
  1H   2s         0.000803  0.368413 -1.576986  0.003501 -0.454344  0.044571
  1H   3s        -0.005335 -2.446640 -0.338983  0.000753  0.063462 -1.423339
  1H   1pz       -0.006038  0.003849  0.001519  0.008194  0.004071  0.002397
  1H   1px       -0.000187 -0.085829  0.145849 -0.000324  0.036440 -0.036335
  1H   1py        0.003144  0.007408  0.002893 -0.004247  0.007870  0.004633
  2H   1s         0.007754  0.004455  0.046035 -0.080141 -0.010782  0.047144
  2H   2s        -0.319460 -0.183511  0.785475 -1.367492 -0.454322  0.044590
  2H   3s         2.121514  1.218707  0.168839 -0.293992  0.063478 -1.423342
  2H   1pz        0.031272  0.022491 -0.033372  0.068794  0.024197 -0.015149
  2H   1px       -0.024163 -0.007470  0.031517 -0.039738 -0.016323  0.009653
  2H   1py       -0.063570 -0.036308  0.056894 -0.098556 -0.023543  0.032015
  3H   1s        -0.007734  0.004489  0.046391  0.079936 -0.010782  0.047144
  3H   2s         0.318657 -0.184902  0.791540  1.363990 -0.454323  0.044590
  3H   3s        -2.116179  1.227947  0.170142  0.293240  0.063478 -1.423342
  3H   1pz        0.069766 -0.042934  0.066251  0.119895 -0.033196  0.034883
  3H   1px        0.024131 -0.007575  0.031693  0.039598 -0.016323  0.009653
  3H   1py        0.011196 -0.002671  0.005640  0.000773  0.006145  0.006134
                     12        13        14        15        16        17
                   0.67638   0.72481   0.72481   1.13247   1.13248   1.36594
                   0.00000   0.00000   0.00000   0.00000   0.00000   0.00000
                  --------  --------  --------  --------  --------  --------
  0N   1s        -0.018537  0.000000  0.000000  0.000000  0.000000  0.002110
  0N   2s        -0.047628  0.000001  0.000000  0.000000  0.000000  0.009513
  0N   3s        -0.026384 -0.000000 -0.000000 -0.000000 -0.000001 -0.217828
  0N   4s         0.316810  0.000004  0.000000  0.000000  0.000005  0.446335
  0N   5s         3.328028 -0.000084 -0.000001 -0.000000 -0.000028  2.720802
  0N   1pz       -0.048381 -0.051141  0.292578 -0.035481  0.006198 -0.041206
  0N   1px        0.037224 -0.310689 -0.000714  0.000083  0.037678  0.031707
  0N   1py       -0.093528 -0.097215 -0.151631  0.018387  0.011790 -0.079657
  0N   2pz       -0.257137 -0.193613  1.107676 -0.080792  0.014113 -0.148203
  0N   2px        0.197857 -1.176232 -0.002705  0.000189  0.085788  0.114026
  0N   2py       -0.497088 -0.368041 -0.574063  0.041868  0.026846 -0.286500
  0N   3pz       -0.296571  0.274661 -1.571260 -0.126298  0.022066 -0.362624
  0N   3px        0.228312  1.668519  0.003836  0.000296  0.134109  0.279051
  0N   3py       -0.573319  0.522107  0.814320  0.065450  0.041974 -0.701011
  0N   1dz2      -0.003419 -0.003453 -0.000907  0.005291  0.003418 -0.004695
  0N   1dxz      -0.003912  0.002039  0.005869 -0.008929 -0.004702 -0.005373
  0N   1dyz       0.009830  0.003504 -0.000727  0.004306 -0.005839  0.013498
  0N   1dx2y2    -0.007996  0.001026 -0.000517  0.003055  0.002306 -0.010980
  0N   1dxy      -0.007563  0.003975 -0.003025  0.004593 -0.009138 -0.010387
  0N   2dz2      -0.003281  0.035015 -0.043189 -0.248499 -0.292967  0.237298
  0N   2dxz      -0.003756  0.011308 -0.022317  0.619811  0.277848  0.271530
  0N   2dyz       0.009433 -0.007273 -0.035388 -0.201744  0.389861 -0.682179
  0N   2dx2y2    -0.007673 -0.050006 -0.025097 -0.143188 -0.042667  0.554867
  0N   2dxy      -0.007262  0.021734  0.011607 -0.319109  0.540482  0.524911
  0N   1f0       -0.022319 -0.010200  0.003830 -0.002273  0.006103 -0.029307
  0N   1f+1      -0.027270  0.004218  0.010286 -0.005960 -0.002569 -0.024006
  0N   1f-1      -0.004673 -0.002117 -0.001013  0.000105  0.001351 -0.004830
  0N   1f+2      -0.014419 -0.006622 -0.004943  0.003052  0.003683 -0.023300
  0N   1f-2       0.009009  0.004377  0.009212 -0.005338 -0.002372 -0.001880
  0N   1f+3      -0.024790  0.010578 -0.007935  0.004599 -0.006099 -0.033165
  0N   1f-3      -0.003322 -0.001435 -0.003085  0.002010  0.001278  0.002191
  1H   1s        -0.044179  0.080448  0.000185  0.000035  0.016042  0.020047
  1H   2s        -1.606657  1.029533  0.002370 -0.000455 -0.205834 -1.245876
  1H   3s        -0.169268 -2.106506 -0.004848  0.000013  0.005692 -0.272796
  1H   1pz       -0.014502 -0.002468  0.025065  0.145284  0.072969  0.047839
  1H   1px        0.092798 -0.064603 -0.000149  0.000059  0.026673  0.114321
  1H   1py       -0.028034 -0.004629 -0.012979 -0.074756  0.141848  0.092481
  2H   1s        -0.044182 -0.040063 -0.069761 -0.013910 -0.007988  0.020050
  2H   2s        -1.606644 -0.512665 -0.892771  0.178494  0.102535 -1.245935
  2H   3s        -0.169178  1.049064  1.826711 -0.004931 -0.002830 -0.272776
  2H   1pz        0.027017  0.003916  0.039511 -0.053252 -0.139252  0.124722
  2H   1px       -0.016054 -0.031941 -0.009341  0.139361 -0.073800 -0.087190
  2H   1py       -0.092843 -0.024604 -0.041334 -0.063499 -0.041501 -0.027502
  3H   1s        -0.044182 -0.040384  0.069576  0.013875 -0.008050  0.020050
  3H   2s        -1.606644 -0.516769  0.890401 -0.178039  0.103323 -1.245935
  3H   3s        -0.169179  1.057462 -1.821863  0.004918 -0.002852 -0.272776
  3H   1pz       -0.091387 -0.022604  0.056462  0.021263  0.046495 -0.094511
  3H   1px       -0.016054 -0.031983  0.009194 -0.139686 -0.073182 -0.087191
  3H   1py       -0.031594 -0.010981 -0.008416  0.079543 -0.137986  0.085904
                     18        19        20        21        22        23
                   1.46445   1.46445   1.88395   2.00477   2.00477   2.08213
                   0.00000   0.00000   0.00000   0.00000   0.00000   0.00000
                  --------  --------  --------  --------  --------  --------
  0N   1s        -0.000000 -0.000000 -0.000000  0.000000  0.000000 -0.061262
  0N   2s        -0.000000 -0.000000 -0.000000  0.000000  0.000001 -0.208861
  0N   3s        -0.000001 -0.000000  0.000000 -0.000000 -0.000011  2.054026
  0N   4s         0.000023  0.000000 -0.000000  0.000000  0.000033 -5.352971
  0N   5s        -0.000061 -0.000000  0.000000 -0.000000 -0.000020  0.986330
  0N   1pz        0.006950 -0.039832  0.000013  0.247356 -0.043201 -0.203497
  0N   1px        0.042292  0.000084  0.000000 -0.000571 -0.262653  0.156593
  0N   1py        0.013241  0.020638 -0.000007 -0.128181 -0.082197 -0.393392
  0N   2pz       -0.212335  1.217024 -0.000066 -0.543224  0.094866  0.609012
  0N   2px       -1.292266 -0.002564 -0.000000  0.001253  0.576756 -0.468662
  0N   2py       -0.404557 -0.630572  0.000034  0.281502  0.180499  1.177318
  0N   3pz       -0.150485  0.862595  0.000015  0.458839 -0.080139 -0.033279
  0N   3px       -0.915897 -0.001818  0.000000 -0.001059 -0.487219  0.025582
  0N   3py       -0.286716 -0.446933 -0.000008 -0.237773 -0.152478 -0.064334
  0N   1dz2      -0.005640  0.006758 -0.000000 -0.016396  0.007764 -0.004680
  0N   1dxz      -0.001697  0.003740  0.000000 -0.000109  0.006670 -0.005355
  0N   1dyz       0.001282  0.005536 -0.000000 -0.013412  0.002063  0.013454
  0N   1dx2y2     0.007907  0.003924 -0.000000 -0.009511 -0.016246 -0.010943
  0N   1dxy      -0.003263 -0.001943 -0.000000  0.000092  0.012894 -0.010352
  0N   2dz2       1.031726 -1.100813  0.000040  0.398288 -0.237163 -0.122673
  0N   2dxz       0.227753 -0.780312  0.000021  0.076181 -0.141118 -0.140360
  0N   2dyz      -0.307668 -0.902159  0.000032  0.325989 -0.007710  0.352654
  0N   2dx2y2    -1.343789 -0.639412  0.000023  0.231161  0.418688 -0.286839
  0N   2dxy       0.436467  0.404742 -0.000011 -0.040157 -0.272392 -0.271338
  0N   1f0       -0.067884  0.024435  0.009248 -0.010373  0.028903  0.134559
  0N   1f+1       0.030590  0.057667 -0.004557 -0.024291 -0.013082  0.154421
  0N   1f-1      -0.018792  0.021085 -0.007675 -0.009668  0.008119  0.027070
  0N   1f+2      -0.028561 -0.038122 -0.010560  0.016365  0.011770  0.090628
  0N   1f-2       0.015355  0.051616 -0.004081 -0.021740 -0.006190 -0.042710
  0N   1f+3       0.057598 -0.044507  0.003530  0.018741 -0.024210  0.149980
  0N   1f-3      -0.032837 -0.029635 -0.005504  0.012848  0.014556  0.014481
  1H   1s        -0.196446 -0.000390 -0.000000  0.000053  0.024175 -0.450308
  1H   2s         2.865085  0.005692  0.000000 -0.001274 -0.585687  2.136116
  1H   3s        -0.449072 -0.000892 -0.000000  0.001030  0.473375 -0.583757
  1H   1pz        0.040332 -0.045818  0.549245 -0.397822  0.347641  0.110172
  1H   1px       -0.509919 -0.001013  0.000001  0.000691  0.318072 -0.635986
  1H   1py        0.077742  0.023897 -0.284117  0.207636  0.669925  0.212977
  2H   1s         0.097886  0.170323 -0.000015 -0.020981 -0.012039 -0.450303
  2H   2s        -1.427600 -2.484086  0.000089  0.507936  0.291728  2.136106
  2H   3s         0.223780  0.389330 -0.000040 -0.410503 -0.235788 -0.583777
  2H   1pz        0.127175  0.161475 -0.356689 -0.687565 -0.096536 -0.170184
  2H   1px       -0.027536 -0.132594 -0.504905  0.217984  0.547727  0.098966
  2H   1py       -0.227022 -0.397791 -0.016497 -0.184600 -0.092259  0.650555
  3H   1s         0.098562 -0.169933  0.000015  0.020928 -0.012130 -0.450303
  3H   2s        -1.437459  2.478394 -0.000089 -0.506662  0.293934  2.136106
  3H   3s         0.225325 -0.388438  0.000040  0.409474 -0.237571 -0.583777
  3H   1pz       -0.260431  0.416936 -0.192634 -0.246694 -0.018450  0.629300
  3H   1px       -0.028063  0.132485  0.504904 -0.215601  0.548671  0.098968
  3H   1py       -0.027767  0.097944  0.300654  0.667255 -0.135001  0.236993
                     24        25        26        27        28        29
                   2.28480   2.34405   2.34405   2.61536   2.61537   2.61806
                   0.00000   0.00000   0.00000   0.00000   0.00000   0.00000
                  --------  --------  --------  --------  --------  --------
  0N   1s        -0.066173 -0.000000 -0.000001  0.000002  0.000369 -0.057546
  0N   2s        -0.227345 -0.000000 -0.000004  0.000009  0.001374 -0.214425
  0N   3s         1.657605  0.000000  0.000023 -0.000067 -0.010011  1.563604
  0N   4s        -2.901512 -0.000000 -0.000035  0.000097  0.014435 -2.250831
  0N   5s         1.124657  0.000000  0.000010 -0.000125 -0.018513  2.896868
  0N   1pz        0.299801  0.733979 -0.128388 -0.054953  0.008090  0.241186
  0N   1px       -0.230678 -0.001892 -0.779444  0.000144  0.059566 -0.185185
  0N   1py        0.579564 -0.380431 -0.243826  0.028456  0.015326  0.466255
  0N   2pz       -0.161510 -2.183543  0.381950  0.573094 -0.097171 -0.481327
  0N   2px        0.124196  0.005629  2.318719 -0.001434 -0.610947  0.366076
  0N   2py       -0.312226  1.131760  0.725377 -0.296969 -0.184573 -0.930522
  0N   3pz        0.232681  0.790201 -0.138226  0.151444 -0.025417 -0.164500
  0N   3px       -0.179038 -0.002037 -0.839155 -0.000380 -0.161557  0.125457
  0N   3py        0.449810 -0.409571 -0.262510 -0.078472 -0.048271 -0.318015
  0N   1dz2      -0.003899  0.017840 -0.011700 -0.022249  0.035888  0.013046
  0N   1dxz      -0.004464  0.005031 -0.005863 -0.038632 -0.001979  0.014656
  0N   1dyz       0.011214  0.014608  0.000586 -0.018300 -0.019168 -0.036977
  0N   1dx2y2    -0.009124  0.010363  0.019284 -0.012976 -0.034840  0.029757
  0N   1dxy      -0.008630 -0.002637 -0.011304  0.019971 -0.004047  0.028335
  0N   2dz2       0.105334  0.038537 -0.342883 -0.185022 -0.591946 -0.124783
  0N   2dxz       0.120571  0.491457  0.123879  1.028402  0.368776 -0.136129
  0N   2dyz      -0.302846  0.032863  0.278563 -0.148691  0.615179  0.351829
  0N   2dx2y2     0.246348  0.023217  0.199146 -0.105651  0.155743 -0.282032
  0N   2dxy       0.233083 -0.253479  0.242408 -0.529847  0.718788 -0.263229
  0N   1f0        0.030273 -0.035649  0.098381  0.030397 -0.080152 -0.048855
  0N   1f+1       0.051357 -0.086440 -0.043624  0.083053  0.033423 -0.095886
  0N   1f-1       0.007929 -0.023166  0.025995 -0.012932 -0.015770 -0.014325
  0N   1f+2       0.014246  0.053872  0.045477 -0.038058 -0.054882 -0.017886
  0N   1f-2      -0.028904 -0.077373 -0.025873  0.074383  0.036576  0.062771
  0N   1f+3       0.032886  0.066663 -0.086880 -0.064067  0.086035 -0.051228
  0N   1f-3       0.012481  0.040547  0.041394 -0.022712 -0.007009 -0.027807
  1H   1s        -0.161805  0.001210  0.497822 -0.001087 -0.461650  0.352411
  1H   2s         0.572061 -0.005036 -2.072661  0.001973  0.836756 -0.738706
  1H   3s        -0.239638  0.003040  1.251169 -0.000536 -0.233718 -0.330093
  1H   1pz       -0.198806 -0.163109 -0.195010 -0.869360 -0.216966  0.256668
  1H   1px       -0.167209  0.001897  0.780758 -0.000629 -0.267189  0.105337
  1H   1py       -0.384325  0.083211 -0.377952  0.448438 -0.424401  0.496242
  2H   1s        -0.161769 -0.431737 -0.247866  0.398375  0.226530  0.356789
  2H   2s         0.571941  1.797520  1.031979 -0.721505 -0.409628 -0.746604
  2H   3s        -0.239587 -1.085055 -0.622954  0.204480  0.119547 -0.327853
  2H   1pz       -0.361619 -0.161188  0.029242  0.098883  0.704742  0.417988
  2H   1px        0.259705 -0.022605  0.159442 -0.668188  0.539209 -0.297077
  2H   1py       -0.130164  0.759175  0.441477  0.052777  0.058806  0.256663
  3H   1s        -0.161769  0.430527 -0.249961 -0.397334  0.228387  0.356767
  3H   2s         0.571941 -1.792483  1.040702  0.719627 -0.412992 -0.746564
  3H   3s        -0.239587  1.082015 -0.628220 -0.203902  0.120500 -0.327865
  3H   1pz        0.102706 -0.711078  0.346886  0.012382 -0.359270 -0.032031
  3H   1px        0.259707  0.023377  0.159331  0.670714  0.536082 -0.297041
  3H   1py       -0.370353 -0.305737  0.280442 -0.108382  0.609685  0.489446
                     30        31        32        33        34        35
                   2.77674   2.83657   2.83657   3.33077   3.58406   3.58410
                   0.00000   0.00000   0.00000   0.00000   0.00000   0.00000
                  --------  --------  --------  --------  --------  --------
  0N   1s        -0.072700  0.000003  0.000000  0.028670  0.000001  0.000000
  0N   2s        -0.262278  0.000011  0.000000  0.061799 -0.000000 -0.000000
  0N   3s         1.695881 -0.000060 -0.000000  1.121844  0.000087  0.000001
  0N   4s        -1.787607  0.000028  0.000000 -5.764245 -0.000332 -0.000002
  0N   5s         3.017501 -0.000128 -0.000001  0.145555  0.000019  0.000000
  0N   1pz       -0.348225 -0.136674  0.780099 -0.047823  0.080526 -0.460991
  0N   1px        0.267920 -0.828448 -0.002242  0.036781  0.489520  0.001076
  0N   1py       -0.673176 -0.259039 -0.404427 -0.092450  0.153186  0.238893
  0N   2pz        0.397178 -0.085755  0.489416  0.898795 -0.528396  3.025037
  0N   2px       -0.305620 -0.519734 -0.001406 -0.691472 -3.212232 -0.007063
  0N   2py        0.767809 -0.162532 -0.253728  1.737518 -1.005172 -1.567623
  0N   3pz       -0.359714 -0.100411  0.573160  0.037801  0.003764 -0.021524
  0N   3px        0.276783 -0.608681 -0.001647 -0.029095  0.022870  0.000050
  0N   3py       -0.695386 -0.190308 -0.297144  0.073076  0.007160  0.011154
  0N   1dz2       0.005419 -0.028690  0.025189  0.022265 -0.143679  0.108601
  0N   1dxz       0.006200 -0.003061  0.025501  0.025470 -0.004476  0.140336
  0N   1dyz      -0.015577  0.011437  0.020686 -0.063991  0.066882  0.089183
  0N   1dx2y2     0.012669  0.033262  0.014678  0.052039  0.153332  0.063221
  0N   1dxy       0.011985 -0.005748 -0.013211  0.049238 -0.007894 -0.072616
  0N   2dz2       0.080854  0.545011 -0.418292 -0.128789  0.867873 -1.168591
  0N   2dxz       0.092542  0.021386 -0.527279 -0.147305  0.340058 -0.483638
  0N   2dyz      -0.232458 -0.249773 -0.343822  0.370091 -0.127505 -0.957118
  0N   2dx2y2     0.189088 -0.586397 -0.243944 -0.300932 -1.313742 -0.678683
  0N   2dxy       0.178898  0.037836  0.272885 -0.284766  0.654763  0.252003
  0N   1f0       -0.113483 -0.111633  0.040680  0.016767  0.163396 -0.061453
  0N   1f+1      -0.112286  0.048860  0.100742  0.060121 -0.067383 -0.165605
  0N   1f-1      -0.020843 -0.028338  0.019426  0.007900  0.033553  0.018346
  0N   1f+2      -0.083069 -0.055404 -0.059849 -0.003830  0.107278  0.078778
  0N   1f-2       0.015182  0.032727  0.090182 -0.052806 -0.071197 -0.148319
  0N   1f+3      -0.127408  0.101758 -0.077656  0.016569 -0.170430  0.127786
  0N   1f-3      -0.002251 -0.041222 -0.043770  0.024506  0.021223  0.048725
  1H   1s         0.357049 -0.140077 -0.000379  0.329848  0.898970  0.001979
  1H   2s        -0.845282  1.759444  0.004765  2.002177  2.246628  0.004945
  1H   3s        -0.419513  0.046235  0.000125 -0.253776 -0.472333 -0.001040
  1H   1pz       -0.133664  0.058500  0.194090 -0.050858  0.008330 -0.465594
  1H   1px        0.356740 -1.281647 -0.003471 -1.378430 -1.352368 -0.002978
  1H   1py       -0.258393  0.114371 -0.100008 -0.098323  0.013585  0.240885
  2H   1s         0.357086  0.069687  0.121468  0.329916 -0.447734 -0.779507
  2H   2s        -0.845368 -0.875516 -1.526033  2.002382 -1.118875 -1.948026
  2H   3s        -0.419518 -0.022985 -0.040110 -0.253820  0.235243  0.409555
  2H   1pz       -0.004479  0.174318  0.556842 -0.771946  0.599639  0.437047
  2H   1px        0.018212 -0.337071 -0.229288  0.511671  0.150377 -0.597546
  2H   1py       -0.459977 -0.550181 -0.947275  1.027115 -0.527342 -0.946199
  3H   1s         0.357086  0.070344 -0.121089  0.329916 -0.451160  0.777529
  3H   2s        -0.845367 -0.883769  1.521269  2.002381 -1.127439  1.943083
  3H   3s        -0.419518 -0.023201  0.039985 -0.253820  0.237043 -0.408515
  3H   1pz       -0.372834 -0.555687  1.091894  1.284337 -0.781381  1.021361
  3H   1px        0.018211 -0.338310  0.227463  0.511676  0.147742  0.598206
  3H   1py       -0.269432 -0.176124  0.091905 -0.036572  0.183873  0.190822
                     36        37        38        39        40        41
                   4.42774   4.68560   4.68561   4.81504   5.01973   5.01974
                   0.00000   0.00000   0.00000   0.00000   0.00000   0.00000
                  --------  --------  --------  --------  --------  --------
  0N   1s         0.002313  0.000000  0.000000  0.000000  0.000000  0.000000
  0N   2s         0.004493  0.000000  0.000000  0.000000 -0.000000 -0.000000
  0N   3s         0.105099  0.000003  0.000000 -0.000000  0.000025  0.000000
  0N   4s        -0.504667 -0.000009 -0.000000 -0.000000 -0.000099 -0.000001
  0N   5s        -0.307282 -0.000014 -0.000000 -0.000000  0.000025  0.000000
  0N   1pz       -0.044586  0.017185 -0.098341 -0.000009  0.005560 -0.031843
  0N   1px        0.034323  0.104424  0.000236 -0.000000  0.033806  0.000076
  0N   1py       -0.086193  0.032677  0.050964  0.000005  0.010574  0.016502
  0N   2pz        0.203659 -0.099785  0.571033  0.000043 -0.049580  0.283926
  0N   2px       -0.156798 -0.606352 -0.001370  0.000000 -0.301448 -0.000673
  0N   2py        0.393706 -0.189738 -0.295933 -0.000022 -0.094293 -0.147139
  0N   3pz        0.055288 -0.016692  0.095536  0.000016 -0.000915  0.005234
  0N   3px       -0.042554 -0.101438 -0.000229  0.000000 -0.005557 -0.000012
  0N   3py        0.106880 -0.031739 -0.049511 -0.000008 -0.001740 -0.002712
  0N   1dz2       0.023462  0.072101  0.257826  0.000034  0.356932  0.403109
  0N   1dxz       0.026866 -0.188459 -0.292204 -0.000017 -0.399798 -0.826443
  0N   1dyz      -0.067472 -0.202045  0.210170  0.000028 -0.529092  0.327686
  0N   1dx2y2     0.054894  0.159170  0.149120  0.000020  0.127795  0.232556
  0N   1dxy       0.051937 -0.365939  0.150106  0.000009 -0.777401  0.425309
  0N   2dz2       0.027761  0.180998 -0.235727 -0.000020 -0.198545 -0.416940
  0N   2dxz       0.031762  0.066062 -0.106505  0.000004  0.340049  0.596529
  0N   2dyz      -0.079769 -0.030877 -0.193102 -0.000017  0.398250 -0.339576
  0N   2dx2y2     0.064858 -0.267929 -0.136940 -0.000012 -0.216761 -0.240946
  0N   2dxy       0.061401  0.127114  0.055457 -0.000002  0.660635 -0.306707
  0N   1f0        0.226232  0.109844 -0.008200  0.579533 -0.113582  0.025292
  0N   1f+1      -0.397384 -0.122373  0.220834 -0.285267  0.087330 -0.059436
  0N   1f-1      -0.027250  0.167600 -0.844680 -0.480791 -0.099540  0.437677
  0N   1f+2       0.395435 -0.406244  0.214211 -0.661739  0.176830 -0.139488
  0N   1f-2       0.691488  0.377044  0.198852 -0.255459 -0.173803 -0.053786
  0N   1f+3       0.286382  0.279449 -0.170641  0.220973 -0.088594  0.045993
  0N   1f-3      -0.340534  0.731245  0.313472 -0.344953 -0.391567 -0.181379
  1H   1s         0.009082  0.174919  0.000396 -0.000000  0.107166  0.000240
  1H   2s         0.311917  0.452291  0.001023 -0.000000  0.208469  0.000466
  1H   3s         0.011932 -0.049255 -0.000111 -0.000000 -0.043123 -0.000096
  1H   1pz       -0.120223  0.181467 -0.078434  0.299083 -0.149455 -0.162490
  1H   1px       -0.138473 -0.175652 -0.000397  0.000001 -0.141286 -0.000316
  1H   1py       -0.232411  0.350368  0.041578 -0.154712 -0.289809  0.083233
  2H   1s         0.009054 -0.087116 -0.151687 -0.000010 -0.053366 -0.092943
  2H   2s         0.311842 -0.225247 -0.392217 -0.000030 -0.103793 -0.180790
  2H   3s         0.011943  0.024533  0.042710 -0.000002  0.021467  0.037397
  2H   1pz       -0.237678 -0.036757 -0.166731 -0.194235  0.230881  0.190633
  2H   1px        0.169508  0.126306  0.074459 -0.274956  0.029261 -0.248371
  2H   1py       -0.049073 -0.186780 -0.329969 -0.009010  0.047040  0.072092
  3H   1s         0.009054 -0.087802  0.151291  0.000011 -0.053781  0.092703
  3H   2s         0.311842 -0.227018  0.391194  0.000030 -0.104600  0.180324
  3H   3s         0.011943  0.024726 -0.042598  0.000002  0.021634 -0.037301
  3H   1pz        0.097279 -0.131988  0.172380 -0.104877 -0.095239  0.050883
  3H   1px        0.169509  0.126641 -0.073887  0.274955  0.028150  0.248500
  3H   1py       -0.222341 -0.139398  0.326111  0.163737  0.216499 -0.196279
                     42        43        44        45        46        47
                   5.04022   5.30404   5.30404   5.82085   5.82089   6.16301
                   0.00000   0.00000   0.00000   0.00000   0.00000   0.00000
                  --------  --------  --------  --------  --------  --------
  0N   1s         0.001446  0.000000  0.000000 -0.000000  0.000000 -0.003673
  0N   2s         0.002902  0.000000  0.000001 -0.000000  0.000002 -0.045860
  0N   3s         0.143067 -0.000000 -0.000002  0.000001 -0.000075  1.729282
  0N   4s        -0.765004 -0.000000 -0.000015 -0.000002  0.000235 -5.575391
  0N   5s         0.716292  0.000000  0.000006  0.000000 -0.000037  0.972389
  0N   1pz       -0.005173 -0.048957  0.008544 -0.322533 -0.056331 -0.069424
  0N   1px        0.003979  0.000105  0.051985  0.000742 -0.342493  0.053409
  0N   1py       -0.010001  0.025367  0.016274  0.167138 -0.107183 -0.134208
  0N   2pz        0.125225 -0.355111  0.061976  2.680369  0.468120  0.711775
  0N   2px       -0.096343  0.000763  0.377083 -0.006168  2.846208 -0.547597
  0N   2py        0.242080  0.183998  0.118048 -1.388975  0.890713  1.375977
  0N   3pz       -0.062996  0.311552 -0.054369 -0.128987 -0.022526 -0.054336
  0N   3px        0.048486 -0.000670 -0.330813  0.000297 -0.136963  0.041808
  0N   3py       -0.121781 -0.161428 -0.103559  0.066842 -0.042861 -0.105041
  0N   1dz2      -0.258586  0.698009 -0.733956 -0.174733 -0.092673 -0.023233
  0N   1dxz      -0.295861  0.615413 -0.110114 -0.016200 -0.066802 -0.026580
  0N   1dyz       0.743408  0.572349  0.264685 -0.142972 -0.013310  0.066776
  0N   1dx2y2    -0.604689  0.405664  0.891574 -0.101384  0.178046 -0.054306
  0N   1dxy      -0.571948 -0.318883 -0.209800  0.008734 -0.129050 -0.051383
  0N   2dz2       0.158438 -0.396776  0.476363 -1.067417 -1.155986 -0.155341
  0N   2dxz       0.181271 -0.439365  0.037105 -0.991580 -0.154220 -0.177688
  0N   2dyz      -0.455499 -0.325549 -0.202124 -0.875564  0.433731  0.446431
  0N   2dx2y2     0.370508 -0.230725 -0.536108 -0.620720  1.380071 -0.363032
  0N   2dxy       0.350426  0.227456  0.069541  0.513735 -0.292842 -0.343500
  0N   1f0       -0.034582  0.070193 -0.203361  0.273948  0.755227  0.705736
  0N   1f+1      -0.122864  0.142803  0.098581  0.664123 -0.335027  0.838171
  0N   1f-1      -0.016161  0.140526 -0.069367  0.176494  0.199283  0.145113
  0N   1f+2       0.007452 -0.128756 -0.042397 -0.413246  0.350036  0.464846
  0N   1f-2       0.107600  0.127713  0.007646  0.594488 -0.199479 -0.256900
  0N   1f+3      -0.034223 -0.110181  0.137005 -0.512412 -0.667597  0.785077
  0N   1f-3      -0.049874 -0.114096 -0.163062 -0.310753  0.316688  0.091686
  1H   1s         0.017191  0.000227  0.112151  0.002865 -1.320799  0.854594
  1H   2s         0.019696 -0.000164 -0.080749  0.004252 -1.960141  1.229893
  1H   3s        -0.122865  0.000406  0.200589 -0.001055  0.486296 -0.295545
  1H   1pz       -0.060090  0.156600 -0.032792  0.178849 -0.023891  0.051473
  1H   1px       -0.176960  0.000795  0.392263 -0.002871  1.323598 -0.953798
  1H   1py       -0.116165 -0.081168 -0.062612 -0.092387 -0.047129  0.099501
  2H   1s         0.017201 -0.097242 -0.055883 -1.145241  0.657869  0.854697
  2H   2s         0.019724  0.069999  0.040241 -1.699611  0.976307  1.230035
  2H   3s        -0.122866 -0.173919 -0.099945  0.421665 -0.242216 -0.295579
  2H   1pz       -0.173656 -0.083115 -0.165102  0.612289 -0.217833 -0.413556
  2H   1px        0.120650  0.156238 -0.076320 -0.279070  0.349852  0.265146
  2H   1py        0.061007  0.309568  0.172471 -0.936224  0.543984  0.825307
  3H   1s         0.017201  0.097014 -0.056276  1.142377  0.662831  0.854696
  3H   2s         0.019724 -0.069835  0.040525  1.695360  0.983671  1.230035
  3H   3s        -0.122866  0.173513 -0.100649 -0.420610 -0.244043 -0.295578
  3H   1pz        0.150131 -0.299725  0.237380  1.115423  0.574695  0.912548
  3H   1px        0.120651 -0.156547 -0.075685  0.277554  0.351061  0.265149
  3H   1py       -0.106483 -0.111175 -0.034648  0.040626  0.136704  0.139331
                     48
                  32.82527
                   0.00000
                  --------
  0N   1s        -1.388026
  0N   2s         1.692430
  0N   3s        -1.492108
  0N   4s         1.497195
  0N   5s        -1.150239
  0N   1pz        0.008788
  0N   1px       -0.006763
  0N   1py        0.016989
  0N   2pz       -0.011515
  0N   2px        0.008862
  0N   2py       -0.022260
  0N   3pz        0.057735
  0N   3px       -0.044430
  0N   3py        0.111611
  0N   1dz2      -0.000867
  0N   1dxz      -0.000992
  0N   1dyz       0.002492
  0N   1dx2y2    -0.002027
  0N   1dxy      -0.001917
  0N   2dz2       0.000017
  0N   2dxz       0.000019
  0N   2dyz      -0.000048
  0N   2dx2y2     0.000038
  0N   2dxy       0.000036
  0N   1f0       -0.005110
  0N   1f+1      -0.007318
  0N   1f-1      -0.001189
  0N   1f+2      -0.002904
  0N   1f-2       0.003311
  0N   1f+3      -0.005620
  0N   1f-3      -0.001357
  1H   1s        -0.027378
  1H   2s         0.027791
  1H   3s         0.196093
  1H   1pz       -0.002173
  1H   1px       -0.037807
  1H   1py       -0.004201
  2H   1s        -0.027378
  2H   2s         0.027790
  2H   3s         0.196095
  2H   1pz       -0.022254
  2H   1px        0.014831
  2H   1py        0.027140
  3H   1s        -0.027378
  3H   2s         0.027790
  3H   3s         0.196095
  3H   1pz        0.035009
  3H   1px        0.014832
  3H   1py       -0.002482

MULLIKEN ATOMIC CHARGES
-----------------------
   0 N :   -0.704663
   1 H :    0.234886
   2 H :    0.234888
   3 H :    0.234888
Sum of atomic charges:   -0.0000000

LOEWDIN ATOMIC CHARGES
----------------------
   0 N :   -0.385725
   1 H :    0.128575
   2 H :    0.128575
   3 H :    0.128575

  Mayer bond orders larger than 0.100000
B(  0-N ,  1-H ) :   0.9438 B(  0-N ,  2-H ) :   0.9438 B(  0-N ,  3-H ) :   0.9438

E(0)                                       ...    -56.218288286
E(0)                                       ...    -56.218288286
E(CORR)(strong-pairs)                      ...     -0.239021596
E(CORR)(weak-pairs)                        ...     -0.000083662
E(CORR)(corrected)                         ...     -0.239105258
E(TOT)                                     ...    -56.457393544
E(CCSD(T))                                 ...    -56.464098525
FINAL SINGLE POINT ENERGY       -56.462505538325

DIPOLE MOMENT
-------------
                                X             Y             Z
Electronic contribution:     -0.06490       0.16301       0.08432
Nuclear contribution   :      0.29863      -0.75017      -0.38805
                        -----------------------------------------
Total Dipole Moment    :      0.23373      -0.58716      -0.30373
                        -----------------------------------------
Magnitude (a.u.)       :      0.70116
Magnitude (Debye)      :      1.78222

Rotational constants in cm-1:     9.964970     9.964717     6.390777
Rotational constants in MHz : 298742.293532 298734.691503 191590.662316

                             ****ORCA TERMINATED NORMALLY****
TOTAL RUN TIME: 0 days 0 hours 0 minutes 5 seconds 706 msec
