                         Program Version 4.2.1 -  RELEASE  -
|  1> ! DLPNO-CCSD(T) gCP(HF/TZ) def2-TZVP def2-TZVP/C TightSCF Grid5 NoFinalGrid GridX6 NoFinalGridX PrintBasis PrintMOs NBO
|  2>
|  3> %pal
|  4>  nprocs 8
|  5> end
|  6>
|  7> *xyzfile 0 1 init.xyz
|  8>
|  9>                          ****END OF INPUT****

CARTESIAN COORDINATES (ANGSTROEM)
---------------------------------
  N      0.000000   -0.000000    0.000000
  H      0.994251    0.000000   -0.000000
  H     -0.497126    0.861047   -0.000000
  H     -0.497126   -0.861047   -0.000000

 Total Charge           Charge          ....    0
 Multiplicity           Mult            ....    1
 Number of Electrons    NEL             ....   10
 Basis Dimension        Dim             ....   49

ORBITAL ENERGIES
----------------

  NO   OCC          E(Eh)            E(eV)
   0   2.0000     -15.518770      -422.2872
   1   2.0000      -1.124340       -30.5948
   2   2.0000      -0.650377       -17.6977
   3   2.0000      -0.650377       -17.6977
   4   2.0000      -0.389388       -10.5958
   5   0.0000       0.135073         3.6755
   6   0.0000       0.212929         5.7941
   7   0.0000       0.212929         5.7941
   8   0.0000       0.453654        12.3445
   9   0.0000       0.453654        12.3445

------------------
MOLECULAR ORBITALS
------------------
                      0         1         2         3         4         5
                 -15.51877  -1.12434  -0.65038  -0.65038  -0.38939   0.13507
                   2.00000   2.00000   2.00000   2.00000   2.00000   0.00000
                  --------  --------  --------  --------  --------  --------
  0N   1s         0.448868 -0.093690  0.000000  0.000000 -0.000000  0.035695
  0N   2s         0.630107 -0.218735  0.000000  0.000000 -0.000000  0.092324
  0N   3s         0.020446  0.316718 -0.000000 -0.000000  0.000000 -0.284395
  0N   4s        -0.006960  0.409114 -0.000000 -0.000000  0.000000  0.477209
  0N   5s         0.004950  0.129145 -0.000000 -0.000000  0.000000 -2.534483
  0N   1pz       -0.000000 -0.000000  0.000000 -0.000000  0.417600  0.000000
  0N   1px       -0.000000  0.000000 -0.333185 -0.001844 -0.000000  0.000000
  0N   1py        0.000000  0.000000 -0.001844  0.333185 -0.000000 -0.000000
  0N   2pz        0.000000 -0.000000  0.000000 -0.000000  0.390398 -0.000000
  0N   2px        0.000000 -0.000000 -0.276237 -0.001529 -0.000000  0.000000
  0N   2py        0.000000  0.000000 -0.001529  0.276237 -0.000000  0.000000
  0N   3pz       -0.000000 -0.000000 -0.000000 -0.000000  0.375575  0.000000
  0N   3px       -0.000000 -0.000000 -0.125952 -0.000697 -0.000000  0.000000
  0N   3py        0.000000 -0.000000 -0.000697  0.125952 -0.000000 -0.000000
  0N   1dz2      -0.000105 -0.008055 -0.000000 -0.000000 -0.000000 -0.004255
  0N   1dxz      -0.000000 -0.000000  0.000000  0.000000 -0.000000  0.000000
  0N   1dyz      -0.000000 -0.000000  0.000000 -0.000000  0.000000 -0.000000
  0N   1dx2y2     0.000000  0.000000 -0.013563 -0.000075  0.000000  0.000000
  0N   1dxy       0.000000  0.000000  0.000075 -0.013563 -0.000000  0.000000
  0N   2dz2      -0.000156 -0.011287 -0.000000 -0.000000 -0.000000 -0.036113
  0N   2dxz      -0.000000 -0.000000  0.000000  0.000000  0.000000  0.000000
  0N   2dyz      -0.000000 -0.000000  0.000000 -0.000000 -0.000000  0.000000
  0N   2dx2y2     0.000000  0.000000 -0.009449 -0.000052  0.000000  0.000000
  0N   2dxy      -0.000000  0.000000  0.000052 -0.009449 -0.000000  0.000000
  0N   1f0        0.000000  0.000000  0.000000 -0.000000 -0.008653  0.000000
  0N   1f+1      -0.000000  0.000000  0.006285  0.000035  0.000000 -0.000000
  0N   1f-1      -0.000000 -0.000000  0.000035 -0.006285  0.000000 -0.000000
  0N   1f+2       0.000000  0.000000  0.000000  0.000000  0.000000  0.000000
  0N   1f-2       0.000000 -0.000000 -0.000000  0.000000  0.000000 -0.000000
  0N   1f+3      -0.000392 -0.007316  0.000000  0.000000 -0.000000 -0.011854
  0N   1f-3      -0.000000  0.000000  0.000000 -0.000000  0.000000  0.000000
  1H   1s         0.000024  0.086570 -0.171588 -0.000950 -0.000000  0.018637
  1H   2s        -0.000119  0.080552 -0.233628 -0.001293 -0.000000 -0.106640
  1H   3s        -0.000789  0.004863 -0.060162 -0.000333 -0.000000  1.161478
  1H   1pz       -0.000000  0.000000 -0.000000 -0.000000  0.022965 -0.000000
  1H   1px        0.000316 -0.016103  0.026706  0.000148  0.000000  0.047871
  1H   1py        0.000000 -0.000000 -0.000058  0.010499 -0.000000 -0.000000
  2H   1s         0.000024  0.086570  0.084972  0.149075 -0.000000  0.018637
  2H   2s        -0.000119  0.080552  0.115694  0.202974 -0.000000 -0.106640
  2H   3s        -0.000789  0.004863  0.029793  0.052268 -0.000000  1.161478
  2H   1pz       -0.000000  0.000000  0.000000  0.000000  0.022965 -0.000000
  2H   1px       -0.000158  0.008052 -0.001287  0.016104 -0.000000 -0.023935
  2H   1py        0.000273 -0.013946 -0.016014 -0.017494  0.000000  0.041457
  3H   1s         0.000024  0.086570  0.086617 -0.148125 -0.000000  0.018637
  3H   2s        -0.000119  0.080552  0.117934 -0.201681 -0.000000 -0.106640
  3H   3s        -0.000789  0.004863  0.030369 -0.051935 -0.000000  1.161478
  3H   1pz       -0.000000  0.000000  0.000000 -0.000000  0.022965 -0.000000
  3H   1px       -0.000158  0.008052 -0.001109 -0.016117 -0.000000 -0.023935
  3H   1py       -0.000273  0.013946  0.016207 -0.017316 -0.000000 -0.041457
                      6         7         8         9        10        11
                   0.21293   0.21293   0.45365   0.45365   0.51842   0.56440
                   0.00000   0.00000   0.00000   0.00000   0.00000   0.00000
                  --------  --------  --------  --------  --------  --------
  0N   1s        -0.000000  0.000000 -0.000000  0.000000  0.000000 -0.016605
  0N   2s        -0.000000  0.000000 -0.000000  0.000000  0.000000 -0.044363
  0N   3s        -0.000000 -0.000000  0.000000 -0.000000  0.000000  0.009779
  0N   4s         0.000000 -0.000000  0.000000 -0.000000 -0.000000  0.175642
  0N   5s         0.000000  0.000000  0.000000 -0.000000 -0.000000  3.055854
  0N   1pz       -0.000000  0.000000 -0.000000 -0.000000 -0.269117 -0.000000
  0N   1px       -0.183947 -0.001223 -0.000070  0.009324  0.000000  0.000000
  0N   1py       -0.001223  0.183947  0.009324  0.000070  0.000000 -0.000000
  0N   2pz       -0.000000  0.000000  0.000000  0.000000 -0.830962 -0.000000
  0N   2px        0.146049  0.000971  0.002331 -0.310450  0.000000 -0.000000
  0N   2py        0.000971 -0.146049 -0.310450 -0.002331  0.000000  0.000000
  0N   3pz       -0.000000  0.000000 -0.000000 -0.000000  1.284401  0.000000
  0N   3px       -1.105594 -0.007348  0.016978 -2.261369 -0.000000 -0.000000
  0N   3py       -0.007348  1.105594 -2.261369 -0.016978 -0.000000  0.000000
  0N   1dz2       0.000000  0.000000  0.000000 -0.000000 -0.000000  0.026793
  0N   1dxz      -0.000000 -0.000000  0.000000 -0.000000  0.000000 -0.000000
  0N   1dyz      -0.000000  0.000000 -0.000000 -0.000000 -0.000000 -0.000000
  0N   1dx2y2     0.002886  0.000019 -0.000275  0.036570  0.000000  0.000000
  0N   1dxy      -0.000019  0.002886 -0.036570 -0.000275 -0.000000  0.000000
  0N   2dz2      -0.000000 -0.000000 -0.000000  0.000000  0.000000 -0.118487
  0N   2dxz      -0.000000 -0.000000 -0.000000  0.000000 -0.000000  0.000000
  0N   2dyz      -0.000000  0.000000  0.000000  0.000000  0.000000 -0.000000
  0N   2dx2y2     0.102101  0.000679  0.002107 -0.280673 -0.000000  0.000000
  0N   2dxy      -0.000679  0.102101  0.280673  0.002107  0.000000 -0.000000
  0N   1f0        0.000000 -0.000000  0.000000  0.000000  0.003257  0.000000
  0N   1f+1      -0.009377 -0.000062 -0.000247  0.032938 -0.000000  0.000000
  0N   1f-1      -0.000062  0.009377  0.032938  0.000247  0.000000 -0.000000
  0N   1f+2      -0.000000 -0.000000 -0.000000  0.000000 -0.000000  0.000000
  0N   1f-2       0.000000 -0.000000 -0.000000 -0.000000 -0.000000  0.000000
  0N   1f+3       0.000000  0.000000 -0.000000  0.000000  0.000000 -0.041706
  0N   1f-3      -0.000000  0.000000  0.000000  0.000000  0.000000 -0.000000
  1H   1s        -0.003551 -0.000024 -0.000587  0.078242  0.000000 -0.065828
  1H   2s        -0.376704 -0.002504 -0.012856  1.712386  0.000000 -1.343604
  1H   3s         2.461816  0.016361 -0.005014  0.667819  0.000000 -0.167974
  1H   1pz       -0.000000 -0.000000 -0.000000  0.000000 -0.011402 -0.000000
  1H   1px        0.093555  0.000622  0.001228 -0.163606 -0.000000  0.082695
  1H   1py        0.000031 -0.004633 -0.060442 -0.000454 -0.000000 -0.000000
  2H   1s         0.001755  0.003087  0.068053 -0.038612  0.000000 -0.065828
  2H   2s         0.186184  0.327487  1.489398 -0.845059  0.000000 -1.343604
  2H   3s        -1.216739 -2.140176  0.580855 -0.329568  0.000000 -0.167974
  2H   1pz        0.000000  0.000000  0.000000 -0.000000 -0.011402 -0.000000
  2H   1px        0.026608  0.038683  0.045319 -0.085897  0.000000 -0.041348
  2H   1py       -0.038030 -0.071581 -0.138150  0.043637 -0.000000  0.071616
  3H   1s         0.001796 -0.003064 -0.067466 -0.039630  0.000000 -0.065828
  3H   2s         0.190520 -0.324984 -1.476542 -0.867327  0.000000 -1.343604
  3H   3s        -1.245077  2.123815 -0.575841 -0.338252  0.000000 -0.167974
  3H   1pz        0.000000 -0.000000 -0.000000 -0.000000 -0.011402 -0.000000
  3H   1px        0.027120 -0.038326 -0.044024 -0.086568  0.000000 -0.041348
  3H   1py        0.038978 -0.071069 -0.137479 -0.045706  0.000000 -0.071616
                     12        13        14        15        16        17
                   0.64009   0.74220   0.74220   1.17131   1.17131   1.42412
                   0.00000   0.00000   0.00000   0.00000   0.00000   0.00000
                  --------  --------  --------  --------  --------  --------
  0N   1s         0.066672  0.000000 -0.000000 -0.000000 -0.000000 -0.000000
  0N   2s         0.135506  0.000000 -0.000000 -0.000000 -0.000000 -0.000000
  0N   3s         0.302160  0.000000  0.000000 -0.000000 -0.000000  0.000000
  0N   4s        -3.498700 -0.000000 -0.000000  0.000000  0.000000 -0.000000
  0N   5s         5.583690  0.000000  0.000000 -0.000000 -0.000000 -0.000000
  0N   1pz        0.000000 -0.000000 -0.000000  0.000000 -0.000000  0.000000
  0N   1px        0.000000  0.001081 -0.325058  0.000000 -0.000000  0.001025
  0N   1py        0.000000 -0.325058 -0.001081  0.000000  0.000000 -0.011776
  0N   2pz        0.000000 -0.000000 -0.000000 -0.000000 -0.000000 -0.000000
  0N   2px       -0.000000  0.004596 -1.382510  0.000000 -0.000000 -0.123907
  0N   2py        0.000000 -1.382510 -0.004596  0.000000  0.000000  1.423357
  0N   3pz       -0.000000  0.000000  0.000000  0.000000 -0.000000 -0.000000
  0N   3px       -0.000000 -0.005830  1.753707  0.000000 -0.000000 -0.117593
  0N   3py       -0.000000  1.753707  0.005830  0.000000  0.000000  1.350826
  0N   1dz2       0.008267  0.000000  0.000000 -0.000000 -0.000000 -0.000000
  0N   1dxz      -0.000000 -0.000000  0.000000 -0.015769  0.000139 -0.000000
  0N   1dyz      -0.000000  0.000000  0.000000 -0.000139 -0.015769  0.000000
  0N   1dx2y2     0.000000 -0.000023  0.006819 -0.000000  0.000000  0.000815
  0N   1dxy       0.000000 -0.006819 -0.000023  0.000000  0.000000  0.009359
  0N   2dz2       0.054337  0.000000  0.000000  0.000000  0.000000  0.000000
  0N   2dxz      -0.000000 -0.000000  0.000000  0.828515 -0.007289  0.000000
  0N   2dyz       0.000000  0.000000  0.000000  0.007289  0.828515 -0.000000
  0N   2dx2y2    -0.000000  0.000335 -0.100793  0.000000 -0.000000 -0.144902
  0N   2dxy      -0.000000  0.100793  0.000335 -0.000000 -0.000000 -1.664531
  0N   1f0       -0.000000  0.000000  0.000000  0.000000 -0.000000  0.000000
  0N   1f+1       0.000000 -0.000086  0.025969 -0.000000  0.000000  0.007351
  0N   1f-1       0.000000  0.025969  0.000086 -0.000000 -0.000000 -0.084440
  0N   1f+2      -0.000000 -0.000000  0.000000 -0.009659  0.000085  0.000000
  0N   1f-2      -0.000000 -0.000000 -0.000000  0.000085  0.009659  0.000000
  0N   1f+3       0.031648  0.000000 -0.000000  0.000000  0.000000  0.000000
  0N   1f-3       0.000000  0.000000  0.000000 -0.000000  0.000000 -0.000000
  1H   1s         0.056387 -0.000268  0.080636  0.000000 -0.000000 -0.013008
  1H   2s         0.421649 -0.003936  1.183926 -0.000000  0.000000  0.248744
  1H   3s        -1.397410  0.006995 -2.104280 -0.000000  0.000000 -0.011951
  1H   1pz        0.000000 -0.000000  0.000000  0.205825 -0.001811  0.000000
  1H   1px       -0.058365  0.000337 -0.101264  0.000000 -0.000000 -0.041803
  1H   1py        0.000000 -0.047322 -0.000157 -0.000000 -0.000000 -0.099602
  2H   1s         0.056387  0.069967 -0.040086 -0.000000  0.000000  0.135911
  2H   2s         0.421649  1.027278 -0.588554  0.000000 -0.000000 -2.598948
  2H   3s        -1.397410 -1.825858  1.046082  0.000000 -0.000000  0.124869
  2H   1pz        0.000000  0.000000 -0.000000 -0.101344  0.179155 -0.000000
  2H   1px        0.029182  0.023559 -0.060730 -0.000000 -0.000000 -0.255013
  2H   1py       -0.050545 -0.087856  0.023066 -0.000000  0.000000  0.357112
  3H   1s         0.056387 -0.069699 -0.040550 -0.000000 -0.000000 -0.122903
  3H   2s         0.421649 -1.023342 -0.595371  0.000000  0.000000  2.350204
  3H   3s        -1.397410  1.818862  1.058198  0.000000  0.000000 -0.112918
  3H   1pz        0.000000 -0.000000 -0.000000 -0.104481 -0.177344  0.000000
  3H   1px        0.029182 -0.023155 -0.060885 -0.000000  0.000000  0.247117
  3H   1py        0.050545 -0.087701 -0.023649  0.000000  0.000000  0.313400
                     18        19        20        21        22        23
                   1.42412   1.47639   1.80394   2.06058   2.08687   2.08687
                   0.00000   0.00000   0.00000   0.00000   0.00000   0.00000
                  --------  --------  --------  --------  --------  --------
  0N   1s        -0.000000 -0.006637 -0.000000  0.000000  0.000000 -0.000000
  0N   2s        -0.000000 -0.026061 -0.000000  0.000000  0.000000 -0.000000
  0N   3s         0.000000  0.540164  0.000000 -0.000000 -0.000000  0.000000
  0N   4s        -0.000000 -1.826624 -0.000000  0.000000  0.000000 -0.000000
  0N   5s        -0.000000 -1.955281  0.000000 -0.000000 -0.000000 -0.000000
  0N   1pz        0.000000  0.000000 -0.000000  0.493659 -0.000000 -0.000000
  0N   1px        0.011776 -0.000000  0.000000 -0.000000 -0.607866  0.002429
  0N   1py        0.001025  0.000000  0.000000 -0.000000 -0.002429 -0.607866
  0N   2pz       -0.000000  0.000000  0.000000 -0.146855  0.000000  0.000000
  0N   2px       -1.423357  0.000000 -0.000000  0.000000  2.343582 -0.009365
  0N   2py       -0.123907 -0.000000 -0.000000  0.000000  0.009365  2.343582
  0N   3pz       -0.000000  0.000000 -0.000000  0.457437 -0.000000 -0.000000
  0N   3px       -1.350826  0.000000 -0.000000 -0.000000 -0.747485  0.002987
  0N   3py       -0.117593 -0.000000 -0.000000 -0.000000 -0.002987 -0.747485
  0N   1dz2      -0.000000 -0.015899 -0.000000 -0.000000 -0.000000  0.000000
  0N   1dxz      -0.000000  0.000000  0.000000 -0.000000  0.000000 -0.000000
  0N   1dyz      -0.000000  0.000000 -0.000000  0.000000  0.000000  0.000000
  0N   1dx2y2     0.009359 -0.000000 -0.000000  0.000000  0.017015 -0.000068
  0N   1dxy      -0.000815 -0.000000  0.000000 -0.000000 -0.000068 -0.017015
  0N   2dz2       0.000000  1.516835  0.000000 -0.000000 -0.000000  0.000000
  0N   2dxz       0.000000 -0.000000  0.000000  0.000000 -0.000000  0.000000
  0N   2dyz       0.000000 -0.000000 -0.000000 -0.000000 -0.000000 -0.000000
  0N   2dx2y2    -1.664531  0.000000 -0.000000  0.000000  0.977957 -0.003908
  0N   2dxy       0.144902  0.000000  0.000000 -0.000000 -0.003908 -0.977957
  0N   1f0        0.000000 -0.000000 -0.000000 -0.002201 -0.000000  0.000000
  0N   1f+1       0.084440 -0.000000  0.000000 -0.000000 -0.154578  0.000618
  0N   1f-1       0.007351  0.000000  0.000000 -0.000000 -0.000618 -0.154578
  0N   1f+2       0.000000 -0.000000 -0.000000  0.000000 -0.000000  0.000000
  0N   1f-2      -0.000000 -0.000000  0.000000 -0.000000  0.000000  0.000000
  0N   1f+3       0.000000  0.123861  0.000000 -0.000000 -0.000000  0.000000
  0N   1f-3       0.000000  0.000000 -0.053755  0.000000 -0.000000 -0.000000
  1H   1s        -0.149427 -0.091782 -0.000000  0.000000  0.454247 -0.001815
  1H   2s         2.857395  1.714776  0.000000 -0.000000 -2.442961  0.009762
  1H   3s        -0.137287  0.004108 -0.000000  0.000000  1.247987 -0.004987
  1H   1pz        0.000000 -0.000000 -0.000000 -0.613506  0.000000 -0.000000
  1H   1px       -0.480208 -0.280027 -0.000000  0.000000  0.932910 -0.003728
  1H   1py        0.008671  0.000000 -0.618608  0.000000  0.002355  0.589262
  2H   1s         0.063448 -0.091782 -0.000000  0.000000 -0.225551  0.394297
  2H   2s        -1.213279  1.714776  0.000000 -0.000000  1.213026 -2.120547
  2H   3s         0.058293  0.004108 -0.000000  0.000000 -0.619675  1.083282
  2H   1pz       -0.000000 -0.000000  0.000000 -0.613506 -0.000000  0.000000
  2H   1px       -0.023495  0.140013  0.535730 -0.000000  0.674579 -0.151502
  2H   1py        0.221880 -0.242510  0.309304  0.000000 -0.145419  0.847593
  3H   1s         0.085979 -0.091782  0.000000  0.000000 -0.228695 -0.392482
  3H   2s        -1.644116  1.714776 -0.000000 -0.000000  1.229935  2.110785
  3H   3s         0.078993  0.004108  0.000000  0.000000 -0.628313 -1.078295
  3H   1pz       -0.000000 -0.000000 -0.000000 -0.613506 -0.000000 -0.000000
  3H   1px       -0.067207  0.140013 -0.535730 -0.000000  0.675769  0.146106
  3H   1py       -0.280250  0.242510  0.309304 -0.000000  0.152189  0.846403
                     24        25        26        27        28        29
                   2.17557   2.28390   2.28390   2.53457   2.62810   2.74044
                   0.00000   0.00000   0.00000   0.00000   0.00000   0.00000
                  --------  --------  --------  --------  --------  --------
  0N   1s        -0.076297  0.000000 -0.000000  0.000000  0.100799  0.000000
  0N   2s        -0.254802  0.000000 -0.000000  0.000000  0.373065  0.000000
  0N   3s         2.282176 -0.000000  0.000000 -0.000000 -2.749081 -0.000000
  0N   4s        -5.812744  0.000000 -0.000000  0.000000  3.954803  0.000000
  0N   5s         2.258696 -0.000000  0.000000 -0.000000 -3.483148 -0.000000
  0N   1pz        0.000000 -0.000000 -0.000000 -1.175569  0.000000 -0.000000
  0N   1px       -0.000000 -0.000000 -0.000000  0.000000 -0.000000  0.009128
  0N   1py        0.000000  0.000000 -0.000000  0.000000  0.000000 -1.028393
  0N   2pz        0.000000  0.000000  0.000000  1.764105 -0.000000  0.000000
  0N   2px        0.000000  0.000000  0.000000 -0.000000  0.000000 -0.016817
  0N   2py       -0.000000 -0.000000  0.000000 -0.000000 -0.000000  1.894786
  0N   3pz        0.000000 -0.000000 -0.000000 -0.555980  0.000000 -0.000000
  0N   3px       -0.000000 -0.000000 -0.000000  0.000000 -0.000000  0.006425
  0N   3py       -0.000000  0.000000 -0.000000  0.000000  0.000000 -0.723892
  0N   1dz2       0.051408 -0.000000 -0.000000  0.000000  0.072727  0.000000
  0N   1dxz      -0.000000 -0.000252 -0.038307  0.000000 -0.000000 -0.000000
  0N   1dyz       0.000000  0.038307 -0.000252 -0.000000 -0.000000  0.000000
  0N   1dx2y2     0.000000  0.000000  0.000000 -0.000000  0.000000 -0.000122
  0N   1dxy       0.000000  0.000000 -0.000000  0.000000  0.000000 -0.013795
  0N   2dz2       0.220634  0.000000  0.000000 -0.000000 -0.160179 -0.000000
  0N   2dxz      -0.000000  0.006758  1.028830 -0.000000  0.000000  0.000000
  0N   2dyz      -0.000000 -1.028830  0.006758  0.000000 -0.000000 -0.000000
  0N   2dx2y2     0.000000  0.000000  0.000000  0.000000 -0.000000  0.005647
  0N   2dxy      -0.000000  0.000000 -0.000000 -0.000000 -0.000000  0.636196
  0N   1f0       -0.000000 -0.000000 -0.000000  0.032171 -0.000000 -0.000000
  0N   1f+1      -0.000000 -0.000000 -0.000000 -0.000000 -0.000000 -0.000283
  0N   1f-1       0.000000  0.000000 -0.000000  0.000000  0.000000  0.031879
  0N   1f+2      -0.000000 -0.000217 -0.033035  0.000000 -0.000000 -0.000000
  0N   1f-2       0.000000 -0.033035  0.000217  0.000000  0.000000 -0.000000
  0N   1f+3       0.295470 -0.000000  0.000000  0.000000  0.197613  0.000000
  0N   1f-3       0.000000 -0.000000  0.000000 -0.000000 -0.000000 -0.000000
  1H   1s        -0.483113  0.000000  0.000000 -0.000000 -0.463570 -0.000371
  1H   2s         1.813517 -0.000000 -0.000000  0.000000  0.443449  0.003952
  1H   3s        -0.751152  0.000000  0.000000  0.000000  0.492974 -0.005540
  1H   1pz       -0.000000 -0.006871 -1.046125 -0.336914  0.000000 -0.000000
  1H   1px       -0.623589  0.000000  0.000000 -0.000000 -0.144805 -0.000071
  1H   1py        0.000000 -0.000000  0.000000  0.000000  0.000000 -0.834557
  2H   1s        -0.483113 -0.000000 -0.000000 -0.000000 -0.463570  0.036377
  2H   2s         1.813517  0.000000  0.000000  0.000000  0.443449 -0.387596
  2H   3s        -0.751153 -0.000000 -0.000000  0.000000  0.492974  0.543301
  2H   1pz       -0.000000  0.909407  0.517112 -0.336914  0.000000  0.000000
  2H   1px        0.311794  0.000000  0.000000  0.000000  0.072402 -0.359296
  2H   1py       -0.540044 -0.000000 -0.000000 -0.000000 -0.125405 -0.199408
  3H   1s        -0.483113  0.000000 -0.000000 -0.000000 -0.463570 -0.036006
  3H   2s         1.813517 -0.000000  0.000000  0.000000  0.443449  0.383644
  3H   3s        -0.751153  0.000000 -0.000000  0.000000  0.492974 -0.537762
  3H   1pz       -0.000000 -0.902536  0.529013 -0.336914  0.000000 -0.000000
  3H   1px        0.311794 -0.000000  0.000000  0.000000  0.072402  0.370372
  3H   1py        0.540044 -0.000000  0.000000  0.000000  0.125405 -0.205884
                     30        31        32        33        34        35
                   2.74044   2.93120   2.93120   3.25819   3.60293   3.60293
                   0.00000   0.00000   0.00000   0.00000   0.00000   0.00000
                  --------  --------  --------  --------  --------  --------
  0N   1s         0.000000 -0.000000 -0.000000 -0.039794 -0.000000 -0.000000
  0N   2s         0.000000 -0.000000 -0.000000 -0.105124 -0.000000  0.000000
  0N   3s        -0.000000  0.000000  0.000000 -0.805889 -0.000000 -0.000000
  0N   4s         0.000000  0.000000  0.000000  5.635553  0.000000  0.000000
  0N   5s        -0.000000  0.000000  0.000000 -0.024248 -0.000000 -0.000000
  0N   1pz        0.000000  0.000000  0.000000 -0.000000 -0.000000  0.000000
  0N   1px        1.028393  0.002748  0.519320  0.000000 -0.284229 -0.004700
  0N   1py        0.009128 -0.519320  0.002748  0.000000 -0.004700  0.284229
  0N   2pz       -0.000000 -0.000000  0.000000 -0.000000  0.000000  0.000000
  0N   2px       -1.894786  0.009291  1.755661 -0.000000  2.738286  0.045277
  0N   2py       -0.016817 -1.755661  0.009291  0.000000  0.045277 -2.738286
  0N   3pz        0.000000  0.000000  0.000000 -0.000000 -0.000000  0.000000
  0N   3px        0.723892  0.003156  0.596428 -0.000000 -0.221662 -0.003665
  0N   3py        0.006425 -0.596428  0.003156  0.000000 -0.003665  0.221662
  0N   1dz2       0.000000  0.000000  0.000000  0.138336  0.000000  0.000000
  0N   1dxz      -0.000000  0.000000  0.000000 -0.000000  0.000000  0.000000
  0N   1dyz      -0.000000 -0.000000  0.000000 -0.000000  0.000000 -0.000000
  0N   1dx2y2    -0.013795 -0.000221 -0.041715  0.000000 -0.165167 -0.002731
  0N   1dxy       0.000122 -0.041715  0.000221  0.000000  0.002731 -0.165167
  0N   2dz2       0.000000 -0.000000 -0.000000 -1.321259 -0.000000 -0.000000
  0N   2dxz       0.000000 -0.000000 -0.000000  0.000000 -0.000000 -0.000000
  0N   2dyz       0.000000  0.000000 -0.000000 -0.000000 -0.000000  0.000000
  0N   2dx2y2     0.636196  0.001373  0.259431  0.000000  1.913619  0.031641
  0N   2dxy      -0.005647  0.259431 -0.001373  0.000000 -0.031641  1.913619
  0N   1f0       -0.000000  0.000000 -0.000000  0.000000  0.000000 -0.000000
  0N   1f+1      -0.031879 -0.000929 -0.175515 -0.000000  0.395101  0.006533
  0N   1f-1      -0.000283  0.175515 -0.000929 -0.000000  0.006533 -0.395101
  0N   1f+2      -0.000000 -0.000000 -0.000000  0.000000  0.000000  0.000000
  0N   1f-2       0.000000 -0.000000  0.000000 -0.000000 -0.000000  0.000000
  0N   1f+3       0.000000 -0.000000 -0.000000 -0.138899  0.000000  0.000000
  0N   1f-3      -0.000000  0.000000 -0.000000  0.000000  0.000000 -0.000000
  1H   1s        -0.041790  0.000975  0.184323 -0.336904 -1.006565 -0.016643
  1H   2s         0.445275 -0.011622 -2.196152 -2.051543 -1.773619 -0.029327
  1H   3s        -0.624152  0.000524  0.098966  0.239548  0.443427  0.007332
  1H   1pz       -0.000000 -0.000000 -0.000000 -0.000000 -0.000000 -0.000000
  1H   1px       -0.007991  0.007551  1.426881  1.401114  1.166901  0.019295
  1H   1py        0.007407  0.585691 -0.003100 -0.000000  0.007774 -0.470178
  2H   1s         0.020574 -0.160117 -0.091317 -0.336904  0.488869  0.880033
  2H   2s        -0.219215  1.907734  1.088010 -2.051543  0.861412  1.550663
  2H   3s         0.307278 -0.085969 -0.049029  0.239548 -0.215364 -0.387685
  2H   1pz        0.000000  0.000000  0.000000 -0.000000  0.000000  0.000000
  2H   1px        0.627158  0.871033 -0.087160 -0.700557  0.639371  0.312344
  2H   1py        0.366633 -0.928350 -0.866581  1.213400 -0.285275 -0.997708
  3H   1s         0.021216  0.159141 -0.093007 -0.336904  0.517696 -0.863390
  3H   2s        -0.226060 -1.896112  1.108141 -2.051543  0.912207 -1.521336
  3H   3s         0.316874  0.085445 -0.049937  0.239548 -0.228063  0.380353
  3H   1pz        0.000000 -0.000000  0.000000 -0.000000  0.000000 -0.000000
  3H   1px        0.620682 -0.871906 -0.077936 -0.700557  0.649347 -0.291035
  3H   1py       -0.363035 -0.919126  0.876358 -1.213400  0.318104 -0.987732
                     36        37        38        39        40        41
                   4.64037   4.64037   4.73491   5.00528   5.00528   5.04525
                   0.00000   0.00000   0.00000   0.00000   0.00000   0.00000
                  --------  --------  --------  --------  --------  --------
  0N   1s        -0.000000 -0.000000 -0.000000  0.000000  0.000000 -0.000000
  0N   2s        -0.000000 -0.000000 -0.000000  0.000000  0.000000 -0.000000
  0N   3s         0.000000  0.000000  0.000000 -0.000000 -0.000000  0.000000
  0N   4s        -0.000000 -0.000000 -0.000000  0.000000 -0.000000  0.000000
  0N   5s         0.000000 -0.000000  0.000000  0.000000  0.000000 -0.000000
  0N   1pz       -0.000000  0.000000  0.120117  0.000000 -0.000000  0.000000
  0N   1px        0.000000 -0.000000 -0.000000  0.000000 -0.000000  0.000000
  0N   1py        0.000000  0.000000 -0.000000  0.000000  0.000000  0.000000
  0N   2pz        0.000000 -0.000000 -0.386151 -0.000000  0.000000  0.000000
  0N   2px       -0.000000  0.000000  0.000000  0.000000 -0.000000 -0.000000
  0N   2py       -0.000000 -0.000000 -0.000000  0.000000  0.000000 -0.000000
  0N   3pz        0.000000 -0.000000 -0.047333  0.000000  0.000000  0.000000
  0N   3px       -0.000000  0.000000 -0.000000 -0.000000  0.000000 -0.000000
  0N   3py       -0.000000 -0.000000 -0.000000 -0.000000 -0.000000 -0.000000
  0N   1dz2      -0.000000 -0.000000  0.000000  0.000000  0.000000 -0.000000
  0N   1dxz      -0.479864  0.005272 -0.000000  1.082214 -0.005605  0.000000
  0N   1dyz      -0.005272 -0.479864  0.000000  0.005605  1.082214 -0.000000
  0N   1dx2y2     0.000000 -0.000000  0.000000  0.000000 -0.000000  0.000000
  0N   1dxy      -0.000000 -0.000000  0.000000 -0.000000 -0.000000 -0.000000
  0N   2dz2      -0.000000  0.000000  0.000000 -0.000000 -0.000000  0.000000
  0N   2dxz      -0.107442  0.001180 -0.000000 -0.829679  0.004297 -0.000000
  0N   2dyz      -0.001180 -0.107442 -0.000000 -0.004297 -0.829679  0.000000
  0N   2dx2y2     0.000000 -0.000000 -0.000000 -0.000000  0.000000 -0.000000
  0N   2dxy      -0.000000 -0.000000  0.000000  0.000000  0.000000  0.000000
  0N   1f0       -0.000000  0.000000  1.106390  0.000000 -0.000000 -0.000000
  0N   1f+1       0.000000 -0.000000 -0.000000  0.000000 -0.000000  0.000000
  0N   1f-1       0.000000  0.000000  0.000000  0.000000  0.000000  0.000000
  0N   1f+2      -0.978756  0.010753 -0.000000 -0.513357  0.002659 -0.000000
  0N   1f-2       0.010753  0.978756 -0.000000  0.002659  0.513357  0.000000
  0N   1f+3      -0.000000  0.000000  0.000000 -0.000000  0.000000  0.000000
  0N   1f-3       0.000000  0.000000 -0.000000  0.000000 -0.000000 -1.223930
  1H   1s        -0.000000  0.000000  0.000000 -0.000000  0.000000  0.000000
  1H   2s         0.000000 -0.000000 -0.000000  0.000000 -0.000000  0.000000
  1H   3s         0.000000 -0.000000 -0.000000  0.000000 -0.000000 -0.000000
  1H   1pz        0.427177 -0.004693  0.343384  0.354057 -0.001834  0.000000
  1H   1px        0.000000 -0.000000  0.000000  0.000000 -0.000000 -0.000000
  1H   1py        0.000000  0.000000 -0.000000 -0.000000 -0.000000 -0.398265
  2H   1s         0.000000 -0.000000  0.000000  0.000000 -0.000000  0.000000
  2H   2s        -0.000000  0.000000 -0.000000 -0.000000  0.000000  0.000000
  2H   3s        -0.000000  0.000000 -0.000000 -0.000000  0.000000 -0.000000
  2H   1pz       -0.209524  0.372293  0.343384 -0.175441  0.307540 -0.000000
  2H   1px        0.000000  0.000000 -0.000000  0.000000 -0.000000  0.344907
  2H   1py        0.000000  0.000000  0.000000 -0.000000  0.000000  0.199132
  3H   1s         0.000000  0.000000  0.000000  0.000000  0.000000 -0.000000
  3H   2s        -0.000000 -0.000000 -0.000000 -0.000000 -0.000000 -0.000000
  3H   3s        -0.000000 -0.000000 -0.000000 -0.000000 -0.000000  0.000000
  3H   1pz       -0.217653 -0.367599  0.343384 -0.178617 -0.305706 -0.000000
  3H   1px        0.000000 -0.000000 -0.000000  0.000000  0.000000 -0.344907
  3H   1py       -0.000000  0.000000 -0.000000  0.000000  0.000000  0.199132
                     42        43        44        45        46        47
                   5.14647   5.23517   5.23517   5.70797   5.70797   6.40964
                   0.00000   0.00000   0.00000   0.00000   0.00000   0.00000
                  --------  --------  --------  --------  --------  --------
  0N   1s         0.005303  0.000000  0.000000  0.000000 -0.000000  0.000929
  0N   2s         0.018039  0.000000  0.000000  0.000000 -0.000000  0.039495
  0N   3s        -0.013066 -0.000000 -0.000000 -0.000000  0.000000 -1.722112
  0N   4s        -0.620103  0.000000  0.000000  0.000000 -0.000000  5.799690
  0N   5s         0.814349  0.000000  0.000000  0.000000 -0.000000 -0.993971
  0N   1pz        0.000000 -0.000000 -0.000000  0.000000 -0.000000  0.000000
  0N   1px        0.000000 -0.192525 -0.001441  0.034077 -0.365722  0.000000
  0N   1py       -0.000000 -0.001441  0.192525  0.365722  0.034077 -0.000000
  0N   2pz        0.000000  0.000000 -0.000000 -0.000000  0.000000 -0.000000
  0N   2px       -0.000000  0.656912  0.004915 -0.336523  3.611660  0.000000
  0N   2py        0.000000  0.004915 -0.656912 -3.611660 -0.336523  0.000000
  0N   3pz       -0.000000  0.000000 -0.000000  0.000000 -0.000000  0.000000
  0N   3px       -0.000000  0.438239  0.003279  0.017139 -0.183940  0.000000
  0N   3py        0.000000  0.003279 -0.438239  0.183940  0.017139 -0.000000
  0N   1dz2       1.177469  0.000000  0.000000  0.000000 -0.000000 -0.281375
  0N   1dxz      -0.000000  0.000000  0.000000  0.000000 -0.000000  0.000000
  0N   1dyz      -0.000000  0.000000 -0.000000  0.000000  0.000000  0.000000
  0N   1dx2y2     0.000000 -1.172871 -0.008776 -0.041409  0.444413  0.000000
  0N   1dxy       0.000000  0.008776 -1.172871  0.444413  0.041409  0.000000
  0N   2dz2      -0.675372 -0.000000 -0.000000 -0.000000  0.000000 -1.181171
  0N   2dxz       0.000000 -0.000000 -0.000000  0.000000 -0.000000  0.000000
  0N   2dyz       0.000000 -0.000000  0.000000  0.000000  0.000000 -0.000000
  0N   2dx2y2    -0.000000  1.409297  0.010545 -0.152972  1.641737  0.000000
  0N   2dxy      -0.000000 -0.010545  1.409297  1.641737  0.152972  0.000000
  0N   1f0       -0.000000 -0.000000  0.000000  0.000000 -0.000000  0.000000
  0N   1f+1       0.000000 -0.445191 -0.003331  0.097464 -1.046014 -0.000000
  0N   1f-1      -0.000000 -0.003331  0.445191  1.046014  0.097464 -0.000000
  0N   1f+2       0.000000 -0.000000 -0.000000  0.000000 -0.000000  0.000000
  0N   1f-2      -0.000000  0.000000 -0.000000 -0.000000 -0.000000  0.000000
  0N   1f+3      -0.283539 -0.000000 -0.000000 -0.000000  0.000000 -1.494596
  0N   1f-3      -0.000000 -0.000000  0.000000  0.000000  0.000000 -0.000000
  1H   1s        -0.081196 -0.458504 -0.003431  0.125483 -1.346717 -0.954071
  1H   2s        -0.004855 -0.700867 -0.005244  0.206368 -2.214801 -1.257580
  1H   3s        -0.132902 -0.077896 -0.000583 -0.052918  0.567930  0.294126
  1H   1pz       -0.000000  0.000000  0.000000  0.000000 -0.000000 -0.000000
  1H   1px       -0.205306  0.032304  0.000242 -0.136267  1.462462  0.964929
  1H   1py        0.000000  0.001760 -0.235264 -0.069981 -0.006521  0.000000
  2H   1s        -0.081196  0.226281  0.398792  1.103550  0.782030 -0.954071
  2H   2s        -0.004855  0.345892  0.609591  1.814890  1.286120 -1.257580
  2H   3s        -0.132902  0.038443  0.067752 -0.465383 -0.329793  0.294126
  2H   1pz       -0.000000 -0.000000 -0.000000  0.000000  0.000000 -0.000000
  2H   1px        0.102653  0.185182 -0.086504  0.564005  0.474283 -0.482465
  2H   1py       -0.177800  0.088506 -0.082386 -1.058159 -0.706793  0.835653
  3H   1s        -0.081196  0.232223 -0.395361 -1.229032  0.564687 -0.954071
  3H   2s        -0.004855  0.354975 -0.604347 -2.021258  0.928681 -1.257580
  3H   3s        -0.132902  0.039453 -0.067169  0.518301 -0.238137  0.294126
  3H   1pz       -0.000000 -0.000000  0.000000 -0.000000  0.000000 -0.000000
  3H   1px        0.102653  0.183866  0.089265 -0.641919  0.361919 -0.482465
  3H   1py        0.177800 -0.087263 -0.083701 -1.170523  0.499131 -0.835653
                     48
                  32.87163
                   0.00000
                  --------
  0N   1s        -1.388436
  0N   2s         1.694353
  0N   3s        -1.495819
  0N   4s         1.476400
  0N   5s        -1.088484
  0N   1pz        0.000000
  0N   1px        0.000000
  0N   1py       -0.000000
  0N   2pz       -0.000000
  0N   2px       -0.000000
  0N   2py       -0.000000
  0N   3pz        0.000000
  0N   3px        0.000000
  0N   3py       -0.000000
  0N   1dz2       0.012719
  0N   1dxz      -0.000000
  0N   1dyz       0.000000
  0N   1dx2y2    -0.000000
  0N   1dxy      -0.000000
  0N   2dz2      -0.000048
  0N   2dxz       0.000000
  0N   2dyz      -0.000000
  0N   2dx2y2     0.000000
  0N   2dxy       0.000000
  0N   1f0        0.000000
  0N   1f+1       0.000000
  0N   1f-1       0.000000
  0N   1f+2       0.000000
  0N   1f-2       0.000000
  0N   1f+3      -0.008758
  0N   1f-3      -0.000000
  1H   1s        -0.017082
  1H   2s        -0.001606
  1H   3s         0.193973
  1H   1pz        0.000000
  1H   1px       -0.046739
  1H   1py       -0.000000
  2H   1s        -0.017082
  2H   2s        -0.001606
  2H   3s         0.193973
  2H   1pz        0.000000
  2H   1px        0.023369
  2H   1py       -0.040477
  3H   1s        -0.017082
  3H   2s        -0.001606
  3H   3s         0.193973
  3H   1pz        0.000000
  3H   1px        0.023369
  3H   1py        0.040477

MULLIKEN ATOMIC CHARGES
-----------------------
   0 N :   -0.775605
   1 H :    0.258535
   2 H :    0.258535
   3 H :    0.258535
Sum of atomic charges:    0.0000000

LOEWDIN ATOMIC CHARGES
----------------------
   0 N :   -0.378583
   1 H :    0.126194
   2 H :    0.126194
   3 H :    0.126194

  Mayer bond orders larger than 0.100000
B(  0-N ,  1-H ) :   0.9327 B(  0-N ,  2-H ) :   0.9327 B(  0-N ,  3-H ) :   0.9327

E(0)                                       ...    -56.210865695
E(0)                                       ...    -56.210865695
E(CORR)(strong-pairs)                      ...     -0.237941989
E(CORR)(weak-pairs)                        ...     -0.000074297
E(CORR)(corrected)                         ...     -0.238016286
E(TOT)                                     ...    -56.448881981
E(CCSD(T))                                 ...    -56.455439057
FINAL SINGLE POINT ENERGY       -56.453927260846

DIPOLE MOMENT
-------------
                                X             Y             Z
Electronic contribution:      0.00000      -0.00000       0.00000
Nuclear contribution   :     -0.00000       0.00000      -0.00000
                        -----------------------------------------
Total Dipole Moment    :      0.00000       0.00000      -0.00000
                        -----------------------------------------
Magnitude (a.u.)       :      0.00000
Magnitude (Debye)      :      0.00000

Rotational constants in cm-1:    11.278536    11.278536     5.639268
Rotational constants in MHz : 338121.995286 338121.993488 169060.997193

                             ****ORCA TERMINATED NORMALLY****
TOTAL RUN TIME: 0 days 0 hours 0 minutes 6 seconds 816 msec
