 Gaussian 09, Revision C.01,
 Gaussian 09:  EM64L-G09RevC.01 23-Sep-2011

 ----------------------------------------------------------------------
 #p wB97XD/6-311++G** opt=(redundant,maxcycles=160) freq=noraman scrf=(
 solvent=water,smd) pop=(full,nbo) scf=(tight,maxcycle=80) integral=(ac
 c2e=12,grid=ultrafine)
 ----------------------------------------------------------------------

 (Enter //home/renato/Gaussian09/g09/l101.exe)
 -------------
 AcOH/AcOH.xyz
 -------------
 Charge =  0 Multiplicity = 1

 SCF Done:  E(RwB97XD) =  -229.096498186     A.U. after   12 cycles
 SCF Done:  E(RwB97XD) =  -229.097491384     A.U. after   11 cycles
 SCF Done:  E(RwB97XD) =  -229.097066006     A.U. after   11 cycles
 SCF Done:  E(RwB97XD) =  -229.097611394     A.U. after   11 cycles
 SCF Done:  E(RwB97XD) =  -229.097649915     A.U. after   10 cycles
 SCF Done:  E(RwB97XD) =  -229.097655052     A.U. after    9 cycles
 SCF Done:  E(RwB97XD) =  -229.097658303     A.U. after    8 cycles
 SCF Done:  E(RwB97XD) =  -229.097664711     A.U. after   10 cycles
 SCF Done:  E(RwB97XD) =  -229.097673145     A.U. after   10 cycles
 SCF Done:  E(RwB97XD) =  -229.097677615     A.U. after   10 cycles
 Optimization completed.
    -- Stationary point found.
 Normal termination of Gaussian 09 at Thu Aug  9 16:50:17 2018.

 ----------------------------------------------------------------------
 #P Geom=AllCheck Guess=TCheck SCRF=Check GenChk RwB97XD/6-311++G(d,p)
 Freq
 ----------------------------------------------------------------------

 Structure from the checkpoint file:  AcOH_0.chk
 -------------
 AcOH/AcOH.xyz
 -------------
 Charge =  0 Multiplicity = 1

                         Standard orientation:
 ---------------------------------------------------------------------
 Center     Atomic      Atomic             Coordinates (Angstroms)
 Number     Number       Type             X           Y           Z
 ---------------------------------------------------------------------
      1          6           0       -0.084885    0.115500   -0.001632
      2          6           0        1.387044   -0.129771   -0.000591
      3          1           0        1.922844    0.815142   -0.054630
      4          1           0        1.655169   -0.763864   -0.848034
      5          1           0        1.663526   -0.661368    0.913051
      6          8           0       -0.617324    1.206950    0.000188
      7          8           0       -0.796985   -1.019818   -0.000355
      8          1           0       -1.740017   -0.801345    0.004280
 ---------------------------------------------------------------------

 SCF Done:  E(RwB97XD) =  -229.097677615     A.U. after    1 cycles

 The electronic state is 1-A.
 Alpha  occ. eigenvalues --  -19.30007 -19.24898 -10.43380 -10.28493  -1.22364
 Alpha  occ. eigenvalues --   -1.13065  -0.85793  -0.71153  -0.59879  -0.57740
 Alpha  occ. eigenvalues --   -0.56666  -0.49337  -0.48697  -0.47425  -0.42170
 Alpha  occ. eigenvalues --   -0.38025
 Alpha virt. eigenvalues --    0.04868   0.06631   0.07167   0.08625   0.08985
 Alpha virt. eigenvalues --    0.11375   0.13717   0.14005   0.15718   0.16716
 Alpha virt. eigenvalues --    0.16810   0.18504   0.19473   0.23751   0.25969

 Mulliken atomic charges:
              1
     1  C    0.300633
     2  C   -0.628315
     3  H    0.192357
     4  H    0.224333
     5  H    0.231157
     6  O   -0.443099
     7  O   -0.235781
     8  H    0.358715
 Sum of Mulliken atomic charges =   0.00000

 Dipole moment (field-independent basis, Debye):
    X=              0.9587    Y=             -2.4742    Z=              0.0220  Tot=              2.6535
 Quadrupole moment (field-independent basis, Debye-Ang):
   XX=            -17.7479   YY=            -29.8994   ZZ=            -23.0472
   XY=              2.8453   XZ=              0.0059   YZ=             -0.0126

  Exact polarizability:  42.572  -2.546  49.305   0.101  -0.020  30.871
 Approx polarizability:  31.671  -2.322  39.034   0.068  -0.012  24.741

 Summary of Natural Population Analysis:

                                       Natural Population
                Natural  -----------------------------------------------
    Atom  No    Charge         Core      Valence    Rydberg      Total
 -----------------------------------------------------------------------
      C    1    0.84537      1.99955     3.10668    0.04839     5.15463
      C    2   -0.70207      1.99924     4.69395    0.00889     6.70207
      H    3    0.23602      0.00000     0.76269    0.00130     0.76398
      H    4    0.24873      0.00000     0.74981    0.00146     0.75127
      H    5    0.25083      0.00000     0.74773    0.00144     0.74917
      O    6   -0.69193      1.99974     6.67904    0.01315     8.69193
      O    7   -0.70842      1.99974     6.69733    0.01135     8.70842
      H    8    0.52148      0.00000     0.47474    0.00378     0.47852
 =======================================================================
   * Total *    0.00000      7.99826    23.91197    0.08976    32.00000

                     1                      2                      3
                     A                      A                      A
 Frequencies --    88.6471               448.6657               553.4041
 Red. masses --     1.0871                 2.9500                 1.2466
 Frc consts  --     0.0050                 0.3499                 0.2249
 IR Inten    --     0.7917                 8.8738               110.6342

                     4                      5                      6
                     A                      A                      A
 Frequencies --   602.7393               654.5100               885.2681
 Red. masses --     4.4055                 1.9191                 4.0191
 Frc consts  --     0.9430                 0.4844                 1.8558
 IR Inten    --    74.1825               121.8132                11.5181

                     7                      8                      9
                     A                      A                      A
 Frequencies --  1008.9489              1075.7022              1200.6814
 Red. masses --     1.6273                 1.8594                 1.9808
 Frc consts  --     0.9760                 1.2677                 1.6825
 IR Inten    --   139.3929                24.7007               448.2726

                    10                     11                     12
                     A                      A                      A
 Frequencies --  1336.6304              1413.3812              1448.3866
 Red. masses --     1.6440                 1.5513                 1.0619
 Frc consts  --     1.7305                 1.8259                 1.3125
 IR Inten    --    66.7887               114.2345                43.1749

                    13                     14                     15
                     A                      A                      A
 Frequencies --  1454.7149              1748.6614              3072.4210
 Red. masses --     1.0433                 9.0482                 1.0375
 Frc consts  --     1.3008                16.3014                 5.7701
 IR Inten    --    19.5132               811.6362                 0.0305

                    16                     17                     18
                     A                      A                      A
 Frequencies --  3148.0870              3189.7287              3792.6834
 Red. masses --     1.1008                 1.1051                 1.0654
 Frc consts  --     6.4275                 6.6245                 9.0293
 IR Inten    --     1.4612                 7.0153               182.1134

 - Thermochemistry -
 -------------------
 Temperature   298.150 Kelvin.  Pressure   1.00000 Atm.
 Atom     1 has atomic number  6 and mass  12.00000

 Molecular mass:    60.02113 amu.
 Principal axes and moments of inertia in atomic units:
                           1         2         3
     Eigenvalues --   157.66066 189.81282 336.27437
           X            0.99838   0.05697   0.00007
           Y           -0.05697   0.99838  -0.00011
           Z           -0.00008   0.00010   1.00000
 This molecule is an asymmetric top.
 Rotational symmetry number  1.
 Rotational temperatures (Kelvin)      0.54937     0.45631     0.25757
 Rotational constants (GHZ):          11.44700     9.50800     5.36687
 Zero-point vibrational energy     162233.1 (Joules/Mol)
                                   38.77465 (Kcal/Mol)
 Warning -- explicit consideration of   4 degrees of freedom as
           vibrations may cause significant error
 Vibrational temperatures:    127.54   645.53   796.22   867.21   941.69
          (Kelvin)           1273.70  1451.65  1547.69  1727.51  1923.11
                             2033.54  2083.90  2093.01  2515.93  4420.52
                             4529.39  4589.30  5456.82

 Zero-point correction=                           0.061791 (Hartree/Particle)
 Thermal correction to Energy=                    0.066291
 Thermal correction to Enthalpy=                  0.067235
 Thermal correction to Gibbs Free Energy=         0.034794
 Sum of electronic and zero-point Energies=           -229.035886
 Sum of electronic and thermal Energies=              -229.031387
 Sum of electronic and thermal Enthalpies=            -229.030442
 Sum of electronic and thermal Free Energies=         -229.062884

                     E (Thermal)             CV                S
                      KCal/Mol        Cal/Mol-Kelvin    Cal/Mol-Kelvin
 Total                   41.598             14.194             68.279
 Electronic               0.000              0.000              0.000
 Translational            0.889              2.981             38.196
 Rotational               0.889              2.981             23.824
 Vibrational             39.821              8.232              6.258
 Vibration     1          0.601              1.957              3.690
 Vibration     2          0.808              1.364              0.800
 Vibration     3          0.909              1.132              0.537
 Vibration     4          0.961              1.026              0.445

 Optimization completed.
    -- Stationary point found.
 Normal termination of Gaussian 09 at Thu Aug  9 16:52:14 2018.
