                         Program Version 4.2.1 -  RELEASE  -
|  1> ! BLYP D4 def2-TZVP RI def2/J TightSCF Grid4 FinalGrid5 PrintBasis PrintMOs
|  2> %maxcore 1150
|  3>
|  4> * xyzfile 0 1 init.xyz
|  5>
|  6> %cpcm
|  7>  smd true
|  8>  smdsolvent "water"
|  9> end
| 10>
| 11>                          ****END OF INPUT****

CARTESIAN COORDINATES (ANGSTROEM)
---------------------------------
  Ar     0.000000    0.000000    0.000000

 Total Charge           Charge          ....    0
 Multiplicity           Mult            ....    1
 Number of Electrons    NEL             ....   18
 Basis Dimension        Dim             ....   37

ORBITAL ENERGIES
----------------

  NO   OCC          E(Eh)            E(eV)
   0   2.0000    -114.218355     -3108.0395
   1   2.0000     -10.816957      -294.3444
   2   2.0000      -8.437586      -229.5984
   3   2.0000      -8.437586      -229.5984
   4   2.0000      -8.437586      -229.5984
   5   2.0000      -0.869515       -23.6607
   6   2.0000      -0.364491        -9.9183
   7   2.0000      -0.364491        -9.9183
   8   2.0000      -0.364491        -9.9183
   9   0.0000       0.375284        10.2120
  10   0.0000       0.375284        10.2120
  11   0.0000       0.375284        10.2120
  12   0.0000       0.429645        11.6912
  13   0.0000       0.429645        11.6912

------------------
MOLECULAR ORBITALS
------------------
                      0         1         2         3         4         5
                 -114.21836 -10.81696  -8.43759  -8.43759  -8.43759  -0.86951
                   2.00000   2.00000   2.00000   2.00000   2.00000   2.00000
                  --------  --------  --------  --------  --------  --------
  0Ar  1s        -1.001666 -0.297736  0.000000  0.000000 -0.000000  0.096110
  0Ar  2s         0.033785 -0.195836  0.000000  0.000000 -0.000000  0.078046
  0Ar  3s         0.010993  0.849927 -0.000000 -0.000000  0.000000 -0.548851
  0Ar  4s        -0.003119  0.032300 -0.000000 -0.000000  0.000000  0.734892
  0Ar  5s         0.001268 -0.008840 -0.000000 -0.000000  0.000000  0.479708
  0Ar  1pz        0.000000 -0.000000  0.114310 -0.021650  0.693753 -0.000000
  0Ar  1px        0.000000 -0.000000  0.017023 -0.702799 -0.024737 -0.000000
  0Ar  1py        0.000000 -0.000000 -0.693882 -0.020808  0.113682 -0.000000
  0Ar  2pz        0.000000 -0.000000  0.056109 -0.010627  0.340525 -0.000000
  0Ar  2px        0.000000 -0.000000  0.008356 -0.344966 -0.012142 -0.000000
  0Ar  2py        0.000000 -0.000000 -0.340588 -0.010214  0.055800 -0.000000
  0Ar  3pz       -0.000000 -0.000000  0.012670 -0.002400  0.076893  0.000000
  0Ar  3px       -0.000000 -0.000000  0.001887 -0.077895 -0.002742  0.000000
  0Ar  3py        0.000000 -0.000000 -0.076907 -0.002306  0.012600  0.000000
  0Ar  4pz       -0.000000  0.000000 -0.001634  0.000309 -0.009916  0.000000
  0Ar  4px       -0.000000  0.000000 -0.000243  0.010045  0.000354 -0.000000
  0Ar  4py       -0.000000  0.000000  0.009918  0.000297 -0.001625  0.000000
  0Ar  5pz       -0.000000  0.000000  0.000490 -0.000093  0.002976  0.000000
  0Ar  5px       -0.000000  0.000000  0.000073 -0.003015 -0.000106  0.000000
  0Ar  5py        0.000000 -0.000000 -0.002977 -0.000089  0.000488  0.000000
  0Ar  1dz2      -0.000000 -0.000000 -0.000000  0.000000  0.000000  0.000000
  0Ar  1dxz      -0.000000 -0.000000  0.000000 -0.000000 -0.000000 -0.000000
  0Ar  1dyz      -0.000000 -0.000000 -0.000000  0.000000  0.000000 -0.000000
  0Ar  1dx2y2     0.000000  0.000000  0.000000 -0.000000 -0.000000 -0.000000
  0Ar  1dxy       0.000000  0.000000 -0.000000  0.000000 -0.000000  0.000000
  0Ar  2dz2       0.000000  0.000000  0.000000 -0.000000  0.000000 -0.000000
  0Ar  2dxz       0.000000  0.000000 -0.000000 -0.000000  0.000000  0.000000
  0Ar  2dyz      -0.000000  0.000000  0.000000 -0.000000 -0.000000  0.000000
  0Ar  2dx2y2    -0.000000 -0.000000 -0.000000  0.000000  0.000000  0.000000
  0Ar  2dxy      -0.000000 -0.000000 -0.000000 -0.000000  0.000000 -0.000000
  0Ar  1f0        0.000000 -0.000000 -0.000000  0.000000  0.000000 -0.000000
  0Ar  1f+1      -0.000000  0.000000 -0.000000  0.000000  0.000000  0.000000
  0Ar  1f-1      -0.000000  0.000000 -0.000000 -0.000000  0.000000  0.000000
  0Ar  1f+2      -0.000000 -0.000000 -0.000000  0.000000 -0.000000  0.000000
  0Ar  1f-2       0.000000 -0.000000 -0.000000  0.000000  0.000000 -0.000000
  0Ar  1f+3       0.000000  0.000000 -0.000000  0.000000  0.000000  0.000000
  0Ar  1f-3       0.000000  0.000000 -0.000000  0.000000  0.000000  0.000000
                      6         7         8         9        10        11
                  -0.36449  -0.36449  -0.36449   0.37528   0.37528   0.37528
                   2.00000   2.00000   2.00000   0.00000   0.00000   0.00000
                  --------  --------  --------  --------  --------  --------
  0Ar  1s        -0.000000 -0.000000 -0.000000 -0.000000 -0.000000 -0.000000
  0Ar  2s        -0.000000 -0.000000 -0.000000 -0.000000 -0.000000 -0.000000
  0Ar  3s         0.000000  0.000000  0.000000  0.000000  0.000000  0.000000
  0Ar  4s        -0.000000 -0.000000 -0.000000 -0.000000 -0.000000 -0.000000
  0Ar  5s         0.000000 -0.000000 -0.000000  0.000000  0.000000  0.000000
  0Ar  1pz       -0.003680 -0.225313  0.009366 -0.168104  0.013714  0.024208
  0Ar  1px       -0.225499  0.003759  0.001840 -0.012550 -0.169691  0.008988
  0Ar  1py       -0.001994 -0.009334 -0.225335 -0.024832 -0.007084 -0.168423
  0Ar  2pz       -0.001697 -0.103906  0.004319 -0.034730  0.002833  0.005001
  0Ar  2px       -0.103991  0.001734  0.000848 -0.002593 -0.035057  0.001857
  0Ar  2py       -0.000920 -0.004305 -0.103916 -0.005130 -0.001464 -0.034795
  0Ar  3pz        0.004615  0.282534 -0.011745  0.077298 -0.006306 -0.011131
  0Ar  3px        0.282767 -0.004714 -0.002307  0.005771  0.078028 -0.004133
  0Ar  3py        0.002501  0.011705  0.282563  0.011418  0.003258  0.077445
  0Ar  4pz        0.008909  0.545487 -0.022675  1.069350 -0.087241 -0.153991
  0Ar  4px        0.545937 -0.009102 -0.004454  0.079831  1.079440 -0.057174
  0Ar  4py        0.004828  0.022599  0.545542  0.157960  0.045065  1.071378
  0Ar  5pz        0.005715  0.349940 -0.014547 -1.341031  0.109405  0.193115
  0Ar  5px        0.350228 -0.005839 -0.002857 -0.100113 -1.353685  0.071700
  0Ar  5py        0.003097  0.014497  0.349975 -0.198092 -0.056515 -1.343575
  0Ar  1dz2       0.000000  0.000000  0.000000  0.000000 -0.000000 -0.000000
  0Ar  1dxz       0.000000  0.000000 -0.000000  0.000000  0.000000 -0.000000
  0Ar  1dyz      -0.000000  0.000000  0.000000  0.000000  0.000000  0.000000
  0Ar  1dx2y2    -0.000000  0.000000 -0.000000 -0.000000  0.000000 -0.000000
  0Ar  1dxy      -0.000000 -0.000000  0.000000  0.000000  0.000000  0.000000
  0Ar  2dz2       0.000000 -0.000000 -0.000000  0.000000 -0.000000 -0.000000
  0Ar  2dxz      -0.000000 -0.000000  0.000000  0.000000  0.000000 -0.000000
  0Ar  2dyz       0.000000 -0.000000 -0.000000  0.000000  0.000000  0.000000
  0Ar  2dx2y2    -0.000000 -0.000000  0.000000 -0.000000  0.000000 -0.000000
  0Ar  2dxy       0.000000  0.000000 -0.000000  0.000000  0.000000  0.000000
  0Ar  1f0       -0.000000 -0.000000  0.000000 -0.000000  0.000000  0.000000
  0Ar  1f+1       0.000000 -0.000000 -0.000000 -0.000000  0.000000  0.000000
  0Ar  1f-1      -0.000000  0.000000  0.000000 -0.000000  0.000000  0.000000
  0Ar  1f+2      -0.000000  0.000000  0.000000 -0.000000 -0.000000  0.000000
  0Ar  1f-2       0.000000 -0.000000  0.000000 -0.000000 -0.000000 -0.000000
  0Ar  1f+3       0.000000 -0.000000 -0.000000 -0.000000  0.000000 -0.000000
  0Ar  1f-3       0.000000 -0.000000 -0.000000 -0.000000  0.000000 -0.000000
                     12        13        14        15        16        17
                   0.42964   0.42964   0.42964   0.42964   0.42964   0.57642
                   0.00000   0.00000   0.00000   0.00000   0.00000   0.00000
                  --------  --------  --------  --------  --------  --------
  0Ar  1s         0.000000  0.000000  0.000000 -0.000000 -0.000000 -0.099394
  0Ar  2s         0.000000  0.000000  0.000000 -0.000000  0.000000 -0.051943
  0Ar  3s        -0.000000 -0.000000 -0.000000  0.000000  0.000000  0.654773
  0Ar  4s         0.000000  0.000000  0.000000 -0.000000 -0.000000 -2.150924
  0Ar  5s        -0.000000 -0.000000 -0.000000  0.000000  0.000000  1.860180
  0Ar  1pz        0.000000 -0.000000  0.000000  0.000000  0.000000  0.000000
  0Ar  1px       -0.000000 -0.000000  0.000000 -0.000000 -0.000000  0.000000
  0Ar  1py        0.000000 -0.000000 -0.000000  0.000000 -0.000000  0.000000
  0Ar  2pz        0.000000 -0.000000  0.000000  0.000000  0.000000 -0.000000
  0Ar  2px        0.000000 -0.000000  0.000000 -0.000000 -0.000000  0.000000
  0Ar  2py        0.000000 -0.000000 -0.000000  0.000000 -0.000000  0.000000
  0Ar  3pz       -0.000000  0.000000 -0.000000 -0.000000 -0.000000  0.000000
  0Ar  3px       -0.000000  0.000000 -0.000000  0.000000  0.000000 -0.000000
  0Ar  3py       -0.000000  0.000000  0.000000 -0.000000  0.000000 -0.000000
  0Ar  4pz       -0.000000  0.000000 -0.000000 -0.000000 -0.000000 -0.000000
  0Ar  4px        0.000000  0.000000 -0.000000  0.000000  0.000000 -0.000000
  0Ar  4py       -0.000000  0.000000  0.000000 -0.000000  0.000000 -0.000000
  0Ar  5pz        0.000000 -0.000000  0.000000  0.000000  0.000000  0.000000
  0Ar  5px       -0.000000 -0.000000  0.000000 -0.000000 -0.000000  0.000000
  0Ar  5py        0.000000 -0.000000 -0.000000  0.000000 -0.000000  0.000000
  0Ar  1dz2       0.014984  0.010100  0.026956  0.095942  0.311852 -0.000000
  0Ar  1dxz      -0.004914 -0.213153  0.248671  0.000817 -0.014606  0.000000
  0Ar  1dyz       0.326835 -0.000079  0.005950 -0.023974 -0.008840  0.000000
  0Ar  1dx2y2    -0.019958 -0.021116 -0.011692 -0.311203  0.098395  0.000000
  0Ar  1dxy       0.006427 -0.248048 -0.211598  0.029705  0.016876 -0.000000
  0Ar  2dz2       0.035482  0.023918  0.063833  0.227194  0.738480 -0.000000
  0Ar  2dxz      -0.011637 -0.504756  0.588865  0.001935 -0.034588  0.000000
  0Ar  2dyz       0.773961 -0.000188  0.014090 -0.056772 -0.020933  0.000000
  0Ar  2dx2y2    -0.047262 -0.050004 -0.027688 -0.736942  0.233005  0.000000
  0Ar  2dxy       0.015220 -0.587388 -0.501073  0.070343  0.039964 -0.000000
  0Ar  1f0       -0.000000  0.000000 -0.000000  0.000000  0.000000  0.000000
  0Ar  1f+1       0.000000 -0.000000  0.000000  0.000000  0.000000 -0.000000
  0Ar  1f-1       0.000000  0.000000  0.000000 -0.000000  0.000000 -0.000000
  0Ar  1f+2      -0.000000 -0.000000  0.000000 -0.000000  0.000000 -0.000000
  0Ar  1f-2       0.000000 -0.000000 -0.000000  0.000000  0.000000  0.000000
  0Ar  1f+3       0.000000 -0.000000 -0.000000  0.000000 -0.000000  0.000000
  0Ar  1f-3       0.000000  0.000000  0.000000  0.000000 -0.000000 -0.000000
                     18        19        20        21        22        23
                   1.90254   1.90254   1.90254   1.90254   1.90254   2.48321
                   0.00000   0.00000   0.00000   0.00000   0.00000   0.00000
                  --------  --------  --------  --------  --------  --------
  0Ar  1s         0.000000  0.000000 -0.000000  0.000000 -0.000000 -0.000000
  0Ar  2s         0.000000  0.000000  0.000000 -0.000000 -0.000000 -0.000000
  0Ar  3s        -0.000000 -0.000000  0.000000 -0.000000  0.000000  0.000000
  0Ar  4s         0.000000  0.000000 -0.000000  0.000000 -0.000000 -0.000000
  0Ar  5s        -0.000000 -0.000000  0.000000 -0.000000  0.000000  0.000000
  0Ar  1pz        0.000000 -0.000000  0.000000 -0.000000  0.000000 -0.000000
  0Ar  1px        0.000000 -0.000000  0.000000  0.000000 -0.000000  0.000000
  0Ar  1py        0.000000  0.000000 -0.000000  0.000000  0.000000  0.000000
  0Ar  2pz        0.000000 -0.000000  0.000000  0.000000  0.000000 -0.000000
  0Ar  2px        0.000000 -0.000000  0.000000  0.000000 -0.000000  0.000000
  0Ar  2py       -0.000000  0.000000 -0.000000  0.000000  0.000000  0.000000
  0Ar  3pz       -0.000000  0.000000 -0.000000  0.000000 -0.000000  0.000000
  0Ar  3px       -0.000000  0.000000 -0.000000 -0.000000  0.000000 -0.000000
  0Ar  3py       -0.000000 -0.000000  0.000000 -0.000000 -0.000000 -0.000000
  0Ar  4pz        0.000000 -0.000000  0.000000 -0.000000  0.000000 -0.000000
  0Ar  4px        0.000000 -0.000000  0.000000  0.000000 -0.000000  0.000000
  0Ar  4py        0.000000  0.000000 -0.000000  0.000000  0.000000  0.000000
  0Ar  5pz       -0.000000  0.000000 -0.000000  0.000000 -0.000000  0.000000
  0Ar  5px       -0.000000  0.000000 -0.000000 -0.000000  0.000000 -0.000000
  0Ar  5py       -0.000000 -0.000000  0.000000 -0.000000 -0.000000 -0.000000
  0Ar  1dz2       0.031194  0.021780 -1.027359  0.481403 -0.286494  0.000000
  0Ar  1dxz      -0.899297  0.749357 -0.014028 -0.012203 -0.011151  0.000000
  0Ar  1dyz      -0.017019 -0.039724  0.147870 -0.341634 -1.109186 -0.000000
  0Ar  1dx2y2     0.016137 -0.003643 -0.539940 -1.010792  0.239229 -0.000000
  0Ar  1dxy      -0.748654 -0.898409 -0.040956  0.020696  0.031828 -0.000000
  0Ar  2dz2      -0.024929 -0.017405  0.820997 -0.384706  0.228947  0.000000
  0Ar  2dxz       0.718659 -0.598836  0.011210  0.009752  0.008911 -0.000000
  0Ar  2dyz       0.013600  0.031745 -0.118168  0.273011  0.886388  0.000000
  0Ar  2dx2y2    -0.012896  0.002911  0.431484  0.807758 -0.191176 -0.000000
  0Ar  2dxy       0.598275  0.717949  0.032730 -0.016539 -0.025435 -0.000000
  0Ar  1f0        0.000000 -0.000000 -0.000000  0.000000 -0.000000  0.000001
  0Ar  1f+1      -0.000000  0.000000 -0.000000  0.000000 -0.000000 -0.387114
  0Ar  1f-1       0.000000  0.000000 -0.000000 -0.000000 -0.000000  0.256884
  0Ar  1f+2      -0.000000  0.000000 -0.000000 -0.000000  0.000000  0.553878
  0Ar  1f-2      -0.000000 -0.000000  0.000000 -0.000000 -0.000000 -0.082948
  0Ar  1f+3      -0.000000 -0.000000  0.000000  0.000000 -0.000000  0.678360
  0Ar  1f-3       0.000000  0.000000  0.000000  0.000000 -0.000000  0.101592
                     24        25        26        27        28        29
                   2.48321   2.48321   2.48321   2.48321   2.48321   2.48321
                   0.00000   0.00000   0.00000   0.00000   0.00000   0.00000
                  --------  --------  --------  --------  --------  --------
  0Ar  1s        -0.000000  0.000000  0.000000 -0.000000 -0.000000 -0.000000
  0Ar  2s        -0.000000  0.000000  0.000000 -0.000000 -0.000000 -0.000000
  0Ar  3s         0.000000 -0.000000 -0.000000  0.000000  0.000000  0.000000
  0Ar  4s        -0.000000  0.000000  0.000000 -0.000000 -0.000000 -0.000000
  0Ar  5s         0.000000 -0.000000 -0.000000  0.000000  0.000000  0.000000
  0Ar  1pz        0.000000  0.000000 -0.000000 -0.000000  0.000000 -0.000000
  0Ar  1px        0.000000 -0.000000 -0.000000 -0.000000 -0.000000  0.000000
  0Ar  1py        0.000000  0.000000  0.000000  0.000000  0.000000 -0.000000
  0Ar  2pz        0.000000  0.000000 -0.000000 -0.000000  0.000000 -0.000000
  0Ar  2px        0.000000 -0.000000 -0.000000 -0.000000 -0.000000  0.000000
  0Ar  2py        0.000000  0.000000  0.000000  0.000000  0.000000 -0.000000
  0Ar  3pz       -0.000000 -0.000000  0.000000  0.000000 -0.000000  0.000000
  0Ar  3px       -0.000000  0.000000  0.000000  0.000000  0.000000 -0.000000
  0Ar  3py       -0.000000 -0.000000 -0.000000 -0.000000 -0.000000  0.000000
  0Ar  4pz        0.000000  0.000000 -0.000000 -0.000000  0.000000 -0.000000
  0Ar  4px        0.000000 -0.000000 -0.000000 -0.000000 -0.000000  0.000000
  0Ar  4py        0.000000  0.000000  0.000000  0.000000  0.000000 -0.000000
  0Ar  5pz       -0.000000 -0.000000  0.000000  0.000000 -0.000000  0.000000
  0Ar  5px       -0.000000  0.000000  0.000000  0.000000  0.000000 -0.000000
  0Ar  5py       -0.000000 -0.000000 -0.000000 -0.000000 -0.000000  0.000000
  0Ar  1dz2      -0.000000  0.000000 -0.000000 -0.000000  0.000000 -0.000000
  0Ar  1dxz      -0.000000  0.000000 -0.000000 -0.000000 -0.000000 -0.000000
  0Ar  1dyz      -0.000000 -0.000000 -0.000000  0.000000 -0.000000 -0.000000
  0Ar  1dx2y2     0.000000 -0.000000 -0.000000 -0.000000 -0.000000  0.000000
  0Ar  1dxy       0.000000  0.000000 -0.000000  0.000000  0.000000 -0.000000
  0Ar  2dz2       0.000000 -0.000000  0.000000 -0.000000 -0.000000  0.000000
  0Ar  2dxz       0.000000 -0.000000  0.000000  0.000000  0.000000  0.000000
  0Ar  2dyz       0.000000  0.000000  0.000000 -0.000000  0.000000  0.000000
  0Ar  2dx2y2    -0.000000  0.000000  0.000000  0.000000  0.000000 -0.000000
  0Ar  2dxy      -0.000000 -0.000000  0.000000 -0.000000 -0.000000  0.000000
  0Ar  1f0       -0.000000 -0.000001  0.000001  0.183093 -0.980825  0.066782
  0Ar  1f+1       0.259373 -0.884383  0.027126 -0.000003 -0.000000 -0.000000
  0Ar  1f-1       0.935285  0.167282  0.176832 -0.000000 -0.000000 -0.000001
  0Ar  1f+2      -0.115806 -0.274343  0.067419  0.761244  0.140080 -0.029737
  0Ar  1f-2      -0.098870  0.026285  0.618576  0.019813  0.056283  0.772306
  0Ar  1f+3      -0.141834 -0.335995  0.082570 -0.621554 -0.114373  0.024282
  0Ar  1f-3       0.121097 -0.032192 -0.757625  0.016178  0.045953  0.630562
                     30        31        32        33        34        35
                   2.52019   2.52019   2.52019  12.47888  12.47888  12.47888
                   0.00000   0.00000   0.00000   0.00000   0.00000   0.00000
                  --------  --------  --------  --------  --------  --------
  0Ar  1s        -0.000000  0.000000  0.000000 -0.000000  0.000000 -0.000000
  0Ar  2s         0.000000 -0.000000 -0.000000  0.000000 -0.000000  0.000000
  0Ar  3s         0.000000 -0.000000 -0.000000  0.000000 -0.000000  0.000000
  0Ar  4s         0.000000  0.000000  0.000000 -0.000000  0.000000 -0.000000
  0Ar  5s        -0.000000 -0.000000 -0.000000 -0.000000 -0.000000  0.000000
  0Ar  1pz       -0.330942  0.002244 -0.013777  1.185233 -0.063858 -0.070745
  0Ar  1px       -0.013483  0.033173  0.329295  0.063374 -0.131125  1.180106
  0Ar  1py        0.003611  0.329563 -0.033052 -0.071179 -1.180079 -0.127300
  0Ar  2pz       -0.398881  0.002705 -0.016605 -2.265057  0.122037  0.135198
  0Ar  2px       -0.016251  0.039983  0.396896 -0.121112  0.250589 -2.255259
  0Ar  2py        0.004352  0.397219 -0.039837  0.136028  2.255209  0.243279
  0Ar  3pz        2.062325 -0.013984  0.085853  1.952334 -0.105188 -0.116532
  0Ar  3px        0.084024 -0.206721 -2.052061  0.104390 -0.215992  1.943889
  0Ar  3py       -0.022500 -2.053733  0.205968 -0.117247 -1.943846 -0.209690
  0Ar  4pz       -2.070918  0.014042 -0.086210 -1.003276  0.054055  0.059884
  0Ar  4px       -0.084374  0.207582  2.060612 -0.053645  0.110995 -0.998936
  0Ar  4py        0.022594  2.062290 -0.206826  0.060252  0.998914  0.107757
  0Ar  5pz        0.774195 -0.005250  0.032229  0.302324 -0.016289 -0.018045
  0Ar  5px        0.031542 -0.077603 -0.770343  0.016165 -0.033447  0.301016
  0Ar  5py       -0.008446 -0.770970  0.077320 -0.018156 -0.301009 -0.032471
  0Ar  1dz2      -0.000000 -0.000000 -0.000000  0.000000  0.000000 -0.000000
  0Ar  1dxz      -0.000000  0.000000  0.000000  0.000000 -0.000000  0.000000
  0Ar  1dyz      -0.000000  0.000000 -0.000000  0.000000 -0.000000 -0.000000
  0Ar  1dx2y2    -0.000000 -0.000000  0.000000  0.000000  0.000000  0.000000
  0Ar  1dxy       0.000000  0.000000  0.000000  0.000000 -0.000000  0.000000
  0Ar  2dz2       0.000000  0.000000  0.000000 -0.000000 -0.000000  0.000000
  0Ar  2dxz       0.000000 -0.000000 -0.000000 -0.000000  0.000000 -0.000000
  0Ar  2dyz       0.000000 -0.000000  0.000000 -0.000000  0.000000  0.000000
  0Ar  2dx2y2     0.000000  0.000000 -0.000000  0.000000 -0.000000 -0.000000
  0Ar  2dxy      -0.000000 -0.000000 -0.000000 -0.000000  0.000000 -0.000000
  0Ar  1f0       -0.000000  0.000000 -0.000000 -0.000000  0.000000  0.000000
  0Ar  1f+1      -0.000000 -0.000000 -0.000000 -0.000000 -0.000000  0.000000
  0Ar  1f-1       0.000000 -0.000000  0.000000 -0.000000 -0.000000 -0.000000
  0Ar  1f+2      -0.000000  0.000000  0.000000 -0.000000  0.000000 -0.000000
  0Ar  1f-2      -0.000000  0.000000 -0.000000 -0.000000  0.000000  0.000000
  0Ar  1f+3       0.000000  0.000000 -0.000000  0.000000  0.000000  0.000000
  0Ar  1f-3      -0.000000  0.000000 -0.000000  0.000000  0.000000  0.000000
                     36
                  31.16453
                   0.00000
                  --------
  0Ar  1s         0.776516
  0Ar  2s        -2.528048
  0Ar  3s        -3.128163
  0Ar  4s         1.439422
  0Ar  5s        -0.631698
  0Ar  1pz        0.000000
  0Ar  1px        0.000000
  0Ar  1py        0.000000
  0Ar  2pz       -0.000000
  0Ar  2px       -0.000000
  0Ar  2py       -0.000000
  0Ar  3pz        0.000000
  0Ar  3px        0.000000
  0Ar  3py        0.000000
  0Ar  4pz       -0.000000
  0Ar  4px       -0.000000
  0Ar  4py       -0.000000
  0Ar  5pz        0.000000
  0Ar  5px        0.000000
  0Ar  5py        0.000000
  0Ar  1dz2      -0.000000
  0Ar  1dxz      -0.000000
  0Ar  1dyz       0.000000
  0Ar  1dx2y2     0.000000
  0Ar  1dxy      -0.000000
  0Ar  2dz2       0.000000
  0Ar  2dxz       0.000000
  0Ar  2dyz      -0.000000
  0Ar  2dx2y2    -0.000000
  0Ar  2dxy       0.000000
  0Ar  1f0        0.000000
  0Ar  1f+1      -0.000000
  0Ar  1f-1       0.000000
  0Ar  1f+2      -0.000000
  0Ar  1f-2       0.000000
  0Ar  1f+3       0.000000
  0Ar  1f-3      -0.000000

MULLIKEN ATOMIC CHARGES
-----------------------
   0 Ar:    0.000000
Sum of atomic charges:    0.0000000

LOEWDIN ATOMIC CHARGES
----------------------
   0 Ar:    0.000000

Dispersion correction            0.000000000
FINAL SINGLE POINT ENERGY      -527.531527277400

DIPOLE MOMENT
-------------
                                X             Y             Z
Electronic contribution:     -0.00000      -0.00000      -0.00000
Nuclear contribution   :      0.00000       0.00000       0.00000
                        -----------------------------------------
Total Dipole Moment    :     -0.00000      -0.00000      -0.00000
                        -----------------------------------------
Magnitude (a.u.)       :      0.00000
Magnitude (Debye)      :      0.00000

Rotational constants in cm-1:     0.000000     0.000000     0.000000
Rotational constants in MHz :     0.000000     0.000000     0.000000

                             ****ORCA TERMINATED NORMALLY****
TOTAL RUN TIME: 0 days 0 hours 0 minutes 2 seconds 253 msec
