                         Program Version 4.2.1 -  RELEASE  -
|  1> ! BLYP D4 def2-TZVP RI def2/J TightSCF Grid4 FinalGrid5 PrintBasis PrintMOs
|  2> %maxcore 1150
|  3>
|  4> * xyzfile 0 1 init.xyz
|  5>
|  6>                          ****END OF INPUT****

CARTESIAN COORDINATES (ANGSTROEM)
---------------------------------
  Ar     0.000000    0.000000    0.000000

 Total Charge           Charge          ....    0
 Multiplicity           Mult            ....    1
 Number of Electrons    NEL             ....   18
 Basis Dimension        Dim             ....   37

ORBITAL ENERGIES
----------------

  NO   OCC          E(Eh)            E(eV)
   0   2.0000    -114.222476     -3108.1516
   1   2.0000     -10.821085      -294.4567
   2   2.0000      -8.441713      -229.7107
   3   2.0000      -8.441713      -229.7107
   4   2.0000      -8.441713      -229.7107
   5   2.0000      -0.873663       -23.7736
   6   2.0000      -0.368635       -10.0311
   7   2.0000      -0.368635       -10.0311
   8   2.0000      -0.368635       -10.0311
   9   0.0000       0.371254        10.1023
  10   0.0000       0.371254        10.1023
  11   0.0000       0.371254        10.1023
  12   0.0000       0.425489        11.5781
  13   0.0000       0.425489        11.5781

------------------
MOLECULAR ORBITALS
------------------
                      0         1         2         3         4         5
                 -114.22248 -10.82108  -8.44171  -8.44171  -8.44171  -0.87366
                   2.00000   2.00000   2.00000   2.00000   2.00000   2.00000
                  --------  --------  --------  --------  --------  --------
  0Ar  1s        -1.001666 -0.297736 -0.000000  0.000000  0.000000 -0.096109
  0Ar  2s         0.033785 -0.195836 -0.000000  0.000000  0.000000 -0.078046
  0Ar  3s         0.010993  0.849927  0.000000 -0.000000 -0.000000  0.548848
  0Ar  4s        -0.003119  0.032300  0.000000 -0.000000 -0.000000 -0.734879
  0Ar  5s         0.001268 -0.008840  0.000000 -0.000000 -0.000000 -0.479719
  0Ar  1pz        0.000000 -0.000000 -0.121193 -0.034697 -0.692053  0.000000
  0Ar  1px        0.000000 -0.000000 -0.056489 -0.699725  0.044974  0.000000
  0Ar  1py        0.000000 -0.000000  0.690615 -0.063323 -0.117767  0.000000
  0Ar  2pz        0.000000 -0.000000 -0.059487 -0.017031 -0.339691  0.000000
  0Ar  2px        0.000000 -0.000000 -0.027727 -0.343457  0.022075  0.000000
  0Ar  2py        0.000000 -0.000000  0.338985 -0.031082 -0.057805  0.000000
  0Ar  3pz       -0.000000 -0.000000 -0.013433 -0.003846 -0.076705 -0.000000
  0Ar  3px       -0.000000 -0.000000 -0.006261 -0.077555  0.004985 -0.000000
  0Ar  3py        0.000000 -0.000000  0.076545 -0.007018 -0.013053 -0.000000
  0Ar  4pz       -0.000000  0.000000  0.001732  0.000496  0.009891 -0.000000
  0Ar  4px       -0.000000  0.000000  0.000807  0.010001 -0.000643 -0.000000
  0Ar  4py       -0.000000  0.000000 -0.009871  0.000905  0.001683 -0.000000
  0Ar  5pz       -0.000000  0.000000 -0.000520 -0.000149 -0.002969 -0.000000
  0Ar  5px       -0.000000  0.000000 -0.000242 -0.003002  0.000193 -0.000000
  0Ar  5py        0.000000 -0.000000  0.002963 -0.000272 -0.000505 -0.000000
  0Ar  1dz2      -0.000000 -0.000000  0.000000  0.000000 -0.000000 -0.000000
  0Ar  1dxz      -0.000000 -0.000000 -0.000000 -0.000000  0.000000  0.000000
  0Ar  1dyz      -0.000000 -0.000000  0.000000  0.000000 -0.000000  0.000000
  0Ar  1dx2y2     0.000000  0.000000 -0.000000 -0.000000  0.000000  0.000000
  0Ar  1dxy       0.000000  0.000000  0.000000  0.000000  0.000000 -0.000000
  0Ar  2dz2       0.000000  0.000000 -0.000000 -0.000000 -0.000000  0.000000
  0Ar  2dxz       0.000000  0.000000 -0.000000 -0.000000 -0.000000 -0.000000
  0Ar  2dyz      -0.000000  0.000000 -0.000000 -0.000000  0.000000 -0.000000
  0Ar  2dx2y2    -0.000000 -0.000000  0.000000  0.000000 -0.000000 -0.000000
  0Ar  2dxy      -0.000000 -0.000000  0.000000 -0.000000 -0.000000  0.000000
  0Ar  1f0        0.000000 -0.000000  0.000000 -0.000000 -0.000000  0.000000
  0Ar  1f+1      -0.000000  0.000000  0.000000  0.000000 -0.000000 -0.000000
  0Ar  1f-1      -0.000000  0.000000  0.000000 -0.000000 -0.000000 -0.000000
  0Ar  1f+2      -0.000000 -0.000000  0.000000  0.000000  0.000000 -0.000000
  0Ar  1f-2       0.000000 -0.000000  0.000000  0.000000 -0.000000  0.000000
  0Ar  1f+3       0.000000  0.000000  0.000000  0.000000 -0.000000 -0.000000
  0Ar  1f-3       0.000000  0.000000  0.000000 -0.000000 -0.000000 -0.000000
                      6         7         8         9        10        11
                  -0.36864  -0.36864  -0.36864   0.37125   0.37125   0.37125
                   2.00000   2.00000   2.00000   0.00000   0.00000   0.00000
                  --------  --------  --------  --------  --------  --------
  0Ar  1s        -0.000000  0.000000  0.000000 -0.000000 -0.000000 -0.000000
  0Ar  2s        -0.000000  0.000000  0.000000 -0.000000 -0.000000 -0.000000
  0Ar  3s         0.000000 -0.000000 -0.000000  0.000000  0.000000  0.000000
  0Ar  4s        -0.000000  0.000000  0.000000 -0.000000 -0.000000 -0.000000
  0Ar  5s         0.000000  0.000000  0.000000  0.000000  0.000000  0.000000
  0Ar  1pz       -0.003703  0.225366 -0.008064 -0.168067  0.013835  0.024394
  0Ar  1px       -0.225503 -0.003768 -0.001742 -0.012667 -0.169683  0.008963
  0Ar  1py       -0.001875  0.008034  0.225390 -0.025021 -0.007027 -0.168397
  0Ar  2pz       -0.001708  0.103925 -0.003719 -0.034736  0.002859  0.005042
  0Ar  2px       -0.103988 -0.001738 -0.000803 -0.002618 -0.035070  0.001852
  0Ar  2py       -0.000865  0.003705  0.103936 -0.005171 -0.001452 -0.034805
  0Ar  3pz        0.004644 -0.282578  0.010112  0.077340 -0.006366 -0.011226
  0Ar  3px        0.282749  0.004724  0.002184  0.005829  0.078083 -0.004124
  0Ar  3py        0.002351 -0.010074 -0.282607  0.011514  0.003234  0.077492
  0Ar  4pz        0.008967 -0.545667  0.019526  1.069031 -0.088000 -0.155165
  0Ar  4px        0.545997  0.009123  0.004217  0.080572  1.079308 -0.057009
  0Ar  4py        0.004540 -0.019453 -0.545724  0.159149  0.044696  1.071131
  0Ar  5pz        0.005751 -0.349963  0.012523 -1.340725  0.110366  0.194601
  0Ar  5px        0.350174  0.005851  0.002705 -0.101049 -1.353614  0.071498
  0Ar  5py        0.002912 -0.012476 -0.349999 -0.199597 -0.056056 -1.343358
  0Ar  1dz2       0.000000 -0.000000 -0.000000  0.000000 -0.000000 -0.000000
  0Ar  1dxz       0.000000 -0.000000  0.000000  0.000000  0.000000 -0.000000
  0Ar  1dyz      -0.000000 -0.000000 -0.000000  0.000000  0.000000  0.000000
  0Ar  1dx2y2    -0.000000 -0.000000  0.000000 -0.000000  0.000000 -0.000000
  0Ar  1dxy      -0.000000  0.000000 -0.000000  0.000000  0.000000  0.000000
  0Ar  2dz2      -0.000000  0.000000  0.000000  0.000000 -0.000000 -0.000000
  0Ar  2dxz      -0.000000  0.000000 -0.000000  0.000000  0.000000 -0.000000
  0Ar  2dyz       0.000000  0.000000  0.000000  0.000000  0.000000  0.000000
  0Ar  2dx2y2     0.000000  0.000000 -0.000000 -0.000000  0.000000 -0.000000
  0Ar  2dxy       0.000000 -0.000000 -0.000000  0.000000  0.000000  0.000000
  0Ar  1f0       -0.000000  0.000000 -0.000000 -0.000000  0.000000  0.000000
  0Ar  1f+1       0.000000  0.000000  0.000000 -0.000000  0.000000  0.000000
  0Ar  1f-1      -0.000000 -0.000000 -0.000000 -0.000000  0.000000  0.000000
  0Ar  1f+2      -0.000000 -0.000000 -0.000000 -0.000000 -0.000000  0.000000
  0Ar  1f-2       0.000000  0.000000 -0.000000 -0.000000 -0.000000 -0.000000
  0Ar  1f+3       0.000000  0.000000  0.000000 -0.000000  0.000000 -0.000000
  0Ar  1f-3       0.000000  0.000000  0.000000 -0.000000  0.000000 -0.000000
                     12        13        14        15        16        17
                   0.42549   0.42549   0.42549   0.42549   0.42549   0.57227
                   0.00000   0.00000   0.00000   0.00000   0.00000   0.00000
                  --------  --------  --------  --------  --------  --------
  0Ar  1s         0.000000  0.000000  0.000000 -0.000000 -0.000000 -0.099395
  0Ar  2s         0.000000  0.000000  0.000000 -0.000000 -0.000000 -0.051943
  0Ar  3s        -0.000000 -0.000000 -0.000000  0.000000  0.000000  0.654777
  0Ar  4s         0.000000  0.000000  0.000000 -0.000000 -0.000000 -2.150929
  0Ar  5s        -0.000000 -0.000000 -0.000000  0.000000  0.000000  1.860177
  0Ar  1pz        0.000000 -0.000000 -0.000000  0.000000  0.000000  0.000000
  0Ar  1px       -0.000000 -0.000000 -0.000000 -0.000000 -0.000000  0.000000
  0Ar  1py        0.000000 -0.000000  0.000000  0.000000 -0.000000  0.000000
  0Ar  2pz        0.000000 -0.000000 -0.000000  0.000000  0.000000 -0.000000
  0Ar  2px        0.000000 -0.000000 -0.000000 -0.000000 -0.000000  0.000000
  0Ar  2py        0.000000 -0.000000  0.000000  0.000000 -0.000000  0.000000
  0Ar  3pz       -0.000000  0.000000  0.000000 -0.000000 -0.000000  0.000000
  0Ar  3px       -0.000000  0.000000  0.000000  0.000000  0.000000 -0.000000
  0Ar  3py       -0.000000  0.000000 -0.000000 -0.000000  0.000000 -0.000000
  0Ar  4pz       -0.000000  0.000000  0.000000 -0.000000 -0.000000 -0.000000
  0Ar  4px        0.000000  0.000000  0.000000  0.000000  0.000000 -0.000000
  0Ar  4py       -0.000000  0.000000 -0.000000 -0.000000  0.000000 -0.000000
  0Ar  5pz        0.000000 -0.000000 -0.000000  0.000000  0.000000  0.000000
  0Ar  5px       -0.000000 -0.000000 -0.000000 -0.000000 -0.000000  0.000000
  0Ar  5py        0.000000 -0.000000  0.000000  0.000000 -0.000000  0.000000
  0Ar  1dz2       0.013743  0.012298 -0.021818  0.064242  0.320250 -0.000000
  0Ar  1dxz      -0.005035 -0.157525 -0.287050  0.007040 -0.014703 -0.000000
  0Ar  1dyz       0.326950  0.001840 -0.006739 -0.021264 -0.010295  0.000000
  0Ar  1dx2y2    -0.018559 -0.022976  0.001713 -0.319810  0.065949 -0.000000
  0Ar  1dxy       0.006950 -0.286368  0.156783  0.024409  0.016484 -0.000000
  0Ar  2dz2       0.032546  0.029124 -0.051668  0.152133  0.758397 -0.000000
  0Ar  2dxz      -0.011924 -0.373042 -0.679776  0.016671 -0.034819 -0.000000
  0Ar  2dyz       0.774263  0.004358 -0.015959 -0.050357 -0.024380  0.000000
  0Ar  2dx2y2    -0.043950 -0.054411  0.004057 -0.757356  0.156177  0.000000
  0Ar  2dxy       0.016458 -0.678159  0.371284  0.057804  0.039036 -0.000000
  0Ar  1f0       -0.000000  0.000000  0.000000  0.000000  0.000000  0.000000
  0Ar  1f+1       0.000000 -0.000000 -0.000000  0.000000  0.000000 -0.000000
  0Ar  1f-1       0.000000  0.000000 -0.000000 -0.000000  0.000000 -0.000000
  0Ar  1f+2      -0.000000 -0.000000 -0.000000 -0.000000  0.000000 -0.000000
  0Ar  1f-2       0.000000 -0.000000  0.000000  0.000000  0.000000  0.000000
  0Ar  1f+3       0.000000 -0.000000  0.000000  0.000000 -0.000000  0.000000
  0Ar  1f-3       0.000000  0.000000 -0.000000  0.000000 -0.000000 -0.000000
                     18        19        20        21        22        23
                   1.89839   1.89839   1.89839   1.89839   1.89839   2.47906
                   0.00000   0.00000   0.00000   0.00000   0.00000   0.00000
                  --------  --------  --------  --------  --------  --------
  0Ar  1s         0.000000 -0.000000 -0.000000  0.000000 -0.000000  0.000000
  0Ar  2s         0.000000 -0.000000 -0.000000 -0.000000 -0.000000  0.000000
  0Ar  3s        -0.000000  0.000000  0.000000 -0.000000  0.000000 -0.000000
  0Ar  4s         0.000000 -0.000000 -0.000000  0.000000 -0.000000  0.000000
  0Ar  5s        -0.000000  0.000000  0.000000 -0.000000  0.000000 -0.000000
  0Ar  1pz        0.000000 -0.000000 -0.000000 -0.000000  0.000000  0.000000
  0Ar  1px        0.000000 -0.000000 -0.000000  0.000000 -0.000000 -0.000000
  0Ar  1py        0.000000  0.000000  0.000000  0.000000  0.000000  0.000000
  0Ar  2pz        0.000000 -0.000000 -0.000000  0.000000  0.000000  0.000000
  0Ar  2px        0.000000 -0.000000 -0.000000  0.000000 -0.000000 -0.000000
  0Ar  2py       -0.000000  0.000000  0.000000  0.000000  0.000000  0.000000
  0Ar  3pz       -0.000000  0.000000  0.000000  0.000000 -0.000000 -0.000000
  0Ar  3px       -0.000000  0.000000  0.000000 -0.000000  0.000000  0.000000
  0Ar  3py       -0.000000 -0.000000 -0.000000 -0.000000 -0.000000 -0.000000
  0Ar  4pz        0.000000 -0.000000 -0.000000 -0.000000  0.000000  0.000000
  0Ar  4px        0.000000 -0.000000 -0.000000  0.000000 -0.000000 -0.000000
  0Ar  4py        0.000000  0.000000  0.000000  0.000000  0.000000  0.000000
  0Ar  5pz       -0.000000  0.000000  0.000000  0.000000 -0.000000 -0.000000
  0Ar  5px       -0.000000  0.000000  0.000000 -0.000000  0.000000  0.000000
  0Ar  5py       -0.000000 -0.000000 -0.000000 -0.000000 -0.000000 -0.000000
  0Ar  1dz2       0.032522  0.018219  1.012570  0.504998 -0.298389  0.000000
  0Ar  1dxz      -0.825803  0.829648  0.014309 -0.012156 -0.011366 -0.000000
  0Ar  1dyz      -0.020514 -0.038319 -0.144553 -0.359710 -1.103889  0.000000
  0Ar  1dx2y2     0.015766 -0.005240  0.568120 -0.992826  0.249013 -0.000000
  0Ar  1dxy      -0.828897 -0.824987  0.039856  0.021942  0.031672 -0.000000
  0Ar  2dz2      -0.025989 -0.014559 -0.809171 -0.403557  0.238451 -0.000000
  0Ar  2dxz       0.659920 -0.662994 -0.011435  0.009714  0.009083  0.000000
  0Ar  2dyz       0.016393  0.030622  0.115516  0.287453  0.882147 -0.000000
  0Ar  2dx2y2    -0.012599  0.004188 -0.453999  0.793393 -0.198993  0.000000
  0Ar  2dxy       0.662393  0.659269 -0.031850 -0.017534 -0.025310  0.000000
  0Ar  1f0        0.000000 -0.000000  0.000000  0.000000 -0.000000 -0.024304
  0Ar  1f+1      -0.000000  0.000000  0.000000  0.000000 -0.000000  0.341096
  0Ar  1f-1       0.000000  0.000000  0.000000 -0.000000 -0.000000 -0.362329
  0Ar  1f+2      -0.000000  0.000000  0.000000 -0.000000  0.000000 -0.325258
  0Ar  1f-2      -0.000000 -0.000000 -0.000000 -0.000000 -0.000000  0.058747
  0Ar  1f+3      -0.000000 -0.000000 -0.000000  0.000000 -0.000000 -0.671870
  0Ar  1f-3       0.000000  0.000000 -0.000000  0.000000 -0.000000 -0.437181
                     24        25        26        27        28        29
                   2.47906   2.47906   2.47906   2.47906   2.47906   2.47906
                   0.00000   0.00000   0.00000   0.00000   0.00000   0.00000
                  --------  --------  --------  --------  --------  --------
  0Ar  1s        -0.000000  0.000000  0.000000  0.000000  0.000000 -0.000000
  0Ar  2s        -0.000000 -0.000000  0.000000  0.000000  0.000000 -0.000000
  0Ar  3s         0.000000  0.000000 -0.000000 -0.000000 -0.000000  0.000000
  0Ar  4s        -0.000000 -0.000000  0.000000  0.000000  0.000000 -0.000000
  0Ar  5s         0.000000  0.000000 -0.000000 -0.000000 -0.000000  0.000000
  0Ar  1pz       -0.000000 -0.000000  0.000000 -0.000000 -0.000000  0.000000
  0Ar  1px       -0.000000 -0.000000  0.000000  0.000000 -0.000000 -0.000000
  0Ar  1py        0.000000  0.000000  0.000000 -0.000000  0.000000  0.000000
  0Ar  2pz       -0.000000 -0.000000  0.000000 -0.000000 -0.000000  0.000000
  0Ar  2px       -0.000000 -0.000000  0.000000  0.000000 -0.000000 -0.000000
  0Ar  2py        0.000000  0.000000  0.000000 -0.000000  0.000000  0.000000
  0Ar  3pz        0.000000  0.000000 -0.000000  0.000000  0.000000 -0.000000
  0Ar  3px        0.000000  0.000000 -0.000000 -0.000000  0.000000  0.000000
  0Ar  3py       -0.000000 -0.000000 -0.000000  0.000000 -0.000000 -0.000000
  0Ar  4pz       -0.000000 -0.000000  0.000000 -0.000000 -0.000000  0.000000
  0Ar  4px       -0.000000 -0.000000  0.000000  0.000000 -0.000000 -0.000000
  0Ar  4py        0.000000  0.000000  0.000000 -0.000000  0.000000  0.000000
  0Ar  5pz        0.000000  0.000000 -0.000000  0.000000  0.000000 -0.000000
  0Ar  5px        0.000000  0.000000 -0.000000 -0.000000  0.000000  0.000000
  0Ar  5py       -0.000000 -0.000000 -0.000000  0.000000 -0.000000 -0.000000
  0Ar  1dz2      -0.000000 -0.000000 -0.000000 -0.000000 -0.000000  0.000000
  0Ar  1dxz      -0.000000 -0.000000  0.000000 -0.000000  0.000000  0.000000
  0Ar  1dyz      -0.000000  0.000000 -0.000000  0.000000 -0.000000  0.000000
  0Ar  1dx2y2    -0.000000 -0.000000 -0.000000  0.000000 -0.000000 -0.000000
  0Ar  1dxy       0.000000 -0.000000 -0.000000  0.000000  0.000000  0.000000
  0Ar  2dz2       0.000000  0.000000  0.000000  0.000000 -0.000000 -0.000000
  0Ar  2dxz       0.000000  0.000000 -0.000000  0.000000 -0.000000 -0.000000
  0Ar  2dyz       0.000000 -0.000000  0.000000 -0.000000  0.000000 -0.000000
  0Ar  2dx2y2     0.000000  0.000000 -0.000000 -0.000000  0.000000  0.000000
  0Ar  2dxy      -0.000000  0.000000  0.000000 -0.000000 -0.000000 -0.000000
  0Ar  1f0       -0.020922  0.287978  0.026342  0.826686  0.481476 -0.010850
  0Ar  1f+1       0.365864  0.086696  0.066791  0.422431 -0.747872 -0.007684
  0Ar  1f-1       0.412033 -0.114085  0.823538 -0.032683  0.078407 -0.022365
  0Ar  1f+2       0.272566  0.850663 -0.165217 -0.251487 -0.072990 -0.020446
  0Ar  1f-2       0.016570 -0.013950 -0.015154 -0.022696  0.029356 -0.997233
  0Ar  1f+3      -0.539919 -0.049408  0.017180  0.238323 -0.439460 -0.066482
  0Ar  1f-3       0.574330 -0.412644 -0.537410  0.128512  0.058368 -0.003478
                     30        31        32        33        34        35
                   2.51609   2.51609   2.51609  12.47476  12.47476  12.47476
                   0.00000   0.00000   0.00000   0.00000   0.00000   0.00000
                  --------  --------  --------  --------  --------  --------
  0Ar  1s         0.000000 -0.000000 -0.000000  0.000000 -0.000000  0.000000
  0Ar  2s        -0.000000  0.000000  0.000000 -0.000000  0.000000 -0.000000
  0Ar  3s        -0.000000  0.000000  0.000000 -0.000000  0.000000 -0.000000
  0Ar  4s        -0.000000 -0.000000 -0.000000  0.000000 -0.000000  0.000000
  0Ar  5s         0.000000  0.000000  0.000000  0.000000  0.000000 -0.000000
  0Ar  1pz        0.330940 -0.002303  0.013770 -1.185198  0.064372  0.070861
  0Ar  1px        0.013473 -0.032994 -0.329311 -0.063537  0.129437 -1.180283
  0Ar  1py       -0.003661 -0.329579  0.032871  0.071610  1.180238  0.125577
  0Ar  2pz        0.398879 -0.002775  0.016597  2.264991 -0.123018 -0.135419
  0Ar  2px        0.016238 -0.039768 -0.396916  0.121423 -0.247362  2.255599
  0Ar  2py       -0.004412 -0.397238  0.039620 -0.136852 -2.255512 -0.239986
  0Ar  3pz       -2.062323  0.014349 -0.085811 -1.952279  0.106034  0.116723
  0Ar  3px       -0.083958  0.205612  2.052174 -0.104659  0.213211 -1.944183
  0Ar  3py        0.022813  2.053841 -0.204846  0.117958  1.944108  0.206853
  0Ar  4pz        2.070944 -0.014409  0.086169  1.003251 -0.054490 -0.059982
  0Ar  4px        0.084309 -0.206471 -2.060753  0.053783 -0.109566  0.999091
  0Ar  4py       -0.022909 -2.062427  0.205702 -0.060617 -0.999052 -0.106299
  0Ar  5pz       -0.774241  0.005387 -0.032215 -0.302319  0.016420  0.018075
  0Ar  5px       -0.031520  0.077191  0.770431 -0.016207  0.033017 -0.301065
  0Ar  5py        0.008565  0.771056 -0.076903  0.018266  0.301054  0.032032
  0Ar  1dz2       0.000000  0.000000  0.000000 -0.000000 -0.000000  0.000000
  0Ar  1dxz       0.000000 -0.000000 -0.000000 -0.000000  0.000000 -0.000000
  0Ar  1dyz       0.000000 -0.000000  0.000000 -0.000000  0.000000  0.000000
  0Ar  1dx2y2     0.000000  0.000000 -0.000000 -0.000000 -0.000000 -0.000000
  0Ar  1dxy      -0.000000 -0.000000 -0.000000 -0.000000  0.000000 -0.000000
  0Ar  2dz2      -0.000000 -0.000000 -0.000000  0.000000  0.000000 -0.000000
  0Ar  2dxz      -0.000000  0.000000  0.000000  0.000000 -0.000000  0.000000
  0Ar  2dyz      -0.000000  0.000000 -0.000000  0.000000 -0.000000 -0.000000
  0Ar  2dx2y2    -0.000000 -0.000000  0.000000 -0.000000  0.000000  0.000000
  0Ar  2dxy       0.000000  0.000000  0.000000  0.000000 -0.000000  0.000000
  0Ar  1f0        0.000000 -0.000000  0.000000  0.000000 -0.000000 -0.000000
  0Ar  1f+1       0.000000  0.000000  0.000000  0.000000  0.000000 -0.000000
  0Ar  1f-1      -0.000000  0.000000 -0.000000  0.000000  0.000000  0.000000
  0Ar  1f+2       0.000000 -0.000000 -0.000000  0.000000 -0.000000  0.000000
  0Ar  1f-2       0.000000 -0.000000  0.000000  0.000000 -0.000000 -0.000000
  0Ar  1f+3      -0.000000 -0.000000  0.000000 -0.000000 -0.000000 -0.000000
  0Ar  1f-3       0.000000 -0.000000  0.000000 -0.000000 -0.000000 -0.000000
                     36
                  31.16040
                   0.00000
                  --------
  0Ar  1s         0.776516
  0Ar  2s        -2.528048
  0Ar  3s        -3.128163
  0Ar  4s         1.439422
  0Ar  5s        -0.631698
  0Ar  1pz        0.000000
  0Ar  1px        0.000000
  0Ar  1py        0.000000
  0Ar  2pz       -0.000000
  0Ar  2px       -0.000000
  0Ar  2py       -0.000000
  0Ar  3pz        0.000000
  0Ar  3px        0.000000
  0Ar  3py        0.000000
  0Ar  4pz       -0.000000
  0Ar  4px       -0.000000
  0Ar  4py       -0.000000
  0Ar  5pz        0.000000
  0Ar  5px        0.000000
  0Ar  5py        0.000000
  0Ar  1dz2      -0.000000
  0Ar  1dxz      -0.000000
  0Ar  1dyz       0.000000
  0Ar  1dx2y2     0.000000
  0Ar  1dxy      -0.000000
  0Ar  2dz2       0.000000
  0Ar  2dxz       0.000000
  0Ar  2dyz      -0.000000
  0Ar  2dx2y2    -0.000000
  0Ar  2dxy       0.000000
  0Ar  1f0        0.000000
  0Ar  1f+1      -0.000000
  0Ar  1f-1       0.000000
  0Ar  1f+2      -0.000000
  0Ar  1f-2       0.000000
  0Ar  1f+3       0.000000
  0Ar  1f-3      -0.000000

MULLIKEN ATOMIC CHARGES
-----------------------
   0 Ar:   -0.000000
Sum of atomic charges:   -0.0000000

LOEWDIN ATOMIC CHARGES
----------------------
   0 Ar:    0.000000

Dispersion correction            0.000000000
FINAL SINGLE POINT ENERGY      -527.531495716438

DIPOLE MOMENT
-------------
                                X             Y             Z
Electronic contribution:     -0.00000      -0.00000      -0.00000
Nuclear contribution   :      0.00000       0.00000       0.00000
                        -----------------------------------------
Total Dipole Moment    :     -0.00000      -0.00000      -0.00000
                        -----------------------------------------
Magnitude (a.u.)       :      0.00000
Magnitude (Debye)      :      0.00000

Rotational constants in cm-1:     0.000000     0.000000     0.000000
Rotational constants in MHz :     0.000000     0.000000     0.000000

                             ****ORCA TERMINATED NORMALLY****
TOTAL RUN TIME: 0 days 0 hours 0 minutes 2 seconds 42 msec
