                         Program Version 4.2.1 -  RELEASE  -
|  1> ! BLYP D4 def2-TZVP RI def2/J Opt TightOpt Freq TightSCF Grid4 FinalGrid5 PrintBasis PrintMOs
|  2> %maxcore 1150
|  3>
|  4> * xyzfile 0 1 init.xyz
|  5>
|  6>                          ****END OF INPUT****
 Total Charge           Charge          ....    0
 Multiplicity           Mult            ....    1
 Number of Electrons    NEL             ....    2
Dispersion correction           -0.000446536
FINAL SINGLE POINT ENERGY        -1.144485178573
Dispersion correction            ...
Dispersion correction           -0.000241397
FINAL SINGLE POINT ENERGY        -1.164937993940
Dispersion correction            ...
Dispersion correction           -0.000179064
FINAL SINGLE POINT ENERGY        -1.166390781431
Dispersion correction            ...
FINAL SINGLE POINT ENERGY        -1.169350357175
FINAL SINGLE POINT ENERGY        -1.169537565088
Dispersion correction           -0.000180040
FINAL SINGLE POINT ENERGY        -1.169545310939
Dispersion correction            ...
Dispersion correction           -0.000180048
FINAL SINGLE POINT ENERGY        -1.169545346622
Dispersion correction            ...
                    ***********************HURRAY********************

CARTESIAN COORDINATES (ANGSTROEM)
---------------------------------
  H      0.000000    0.000000    0.126212
  H      0.000000    0.000000    0.873788

 Multiplicity           Mult            ....    1
 Number of Electrons    NEL             ....    2
 Basis Dimension        Dim             ....   12

ORBITAL ENERGIES
----------------

  NO   OCC          E(Eh)            E(eV)
   0   2.0000      -0.380460       -10.3529
   1   0.0000       0.036361         0.9894
   2   0.0000       0.178939         4.8692
   3   0.0000       0.438989        11.9455
   4   0.0000       1.117316        30.4037
   5   0.0000       1.117316        30.4037

------------------
MOLECULAR ORBITALS
------------------
                      0         1         2         3         4         5
                  -0.38046   0.03636   0.17894   0.43899   1.11732   1.11732
                   2.00000   0.00000   0.00000   0.00000   0.00000   0.00000
                  --------  --------  --------  --------  --------  --------
  0H   1s        -0.199658 -0.098893 -0.084105  0.139879  0.000000  0.000000
  0H   2s        -0.267354 -0.087460 -0.674056  1.791657  0.000000  0.000000
  0H   3s        -0.148037 -1.987026  0.827847 -2.466325 -0.000000 -0.000000
  0H   1pz       -0.017533  0.049725 -0.012085  0.102263  0.000000  0.000000
  0H   1px        0.000000 -0.000000  0.000000 -0.000000  0.585310 -0.047093
  0H   1py        0.000000 -0.000000 -0.000000 -0.000000  0.047093  0.585310
  1H   1s        -0.199658  0.098893 -0.084105 -0.139879  0.000000  0.000000
  1H   2s        -0.267354  0.087460 -0.674056 -1.791657 -0.000000 -0.000000
  1H   3s        -0.148037  1.987026  0.827847  2.466325  0.000000  0.000000
  1H   1pz        0.017533  0.049725  0.012085  0.102263  0.000000  0.000000
  1H   1px       -0.000000 -0.000000  0.000000  0.000000  0.585310 -0.047093
  1H   1py       -0.000000  0.000000  0.000000  0.000000  0.047093  0.585310
                      6         7         8         9        10        11
                   1.55822   1.88419   1.88419   1.94825   2.34794   3.33224
                   0.00000   0.00000   0.00000   0.00000   0.00000   0.00000
                  --------  --------  --------  --------  --------  --------
  0H   1s        -0.378308 -0.000000  0.000000  0.699697  1.067266 -1.012108
  0H   2s         0.783277  0.000000 -0.000000 -3.154203 -0.972208 -1.674642
  0H   3s        -0.390858 -0.000000  0.000000  1.632267  0.348364  0.314370
  0H   1pz       -0.562276  0.000000 -0.000000 -1.125743 -0.419885 -1.877805
  0H   1px        0.000000 -0.280947  0.911215 -0.000000  0.000000 -0.000000
  0H   1py        0.000000 -0.911215 -0.280947 -0.000000  0.000000  0.000000
  1H   1s        -0.378308  0.000000 -0.000000 -0.699697  1.067266  1.012108
  1H   2s         0.783277 -0.000000  0.000000  3.154203 -0.972208  1.674642
  1H   3s        -0.390858  0.000000 -0.000000 -1.632267  0.348364 -0.314370
  1H   1pz        0.562276  0.000000 -0.000000 -1.125743  0.419885 -1.877805
  1H   1px       -0.000000  0.280947 -0.911215  0.000000 -0.000000  0.000000
  1H   1py       -0.000000  0.911215  0.280947  0.000000 -0.000000  0.000000

MULLIKEN ATOMIC CHARGES
-----------------------
   0 H :   -0.000000
   1 H :    0.000000
Sum of atomic charges:   -0.0000000

LOEWDIN ATOMIC CHARGES
----------------------
   0 H :   -0.000000
   1 H :    0.000000

  Mayer bond orders larger than 0.100000
B(  0-H ,  1-H ) :   1.0000

Dispersion correction           -0.000180048
FINAL SINGLE POINT ENERGY        -1.169545346368

DIPOLE MOMENT
-------------
                                X             Y             Z
Electronic contribution:      0.00000       0.00000       0.00000
Nuclear contribution   :      0.00000       0.00000      -0.00000
                        -----------------------------------------
Total Dipole Moment    :      0.00000       0.00000       0.00000
                        -----------------------------------------
Magnitude (a.u.)       :      0.00000
Magnitude (Debye)      :      0.00000

Dispersion correction in the Hessian             ...

VIBRATIONAL FREQUENCIES
-----------------------

Scaling factor for frequencies =  1.000000000  (already applied!)

   0:         0.00 cm**-1
   1:         0.00 cm**-1
   2:         0.00 cm**-1
   3:         0.00 cm**-1
   4:         0.00 cm**-1
   5:      4350.43 cm**-1

IR SPECTRUM
-----------

 Mode    freq (cm**-1)   T**2         TX         TY         TZ
-------------------------------------------------------------------
   5:      4350.43    0.000000  ( -0.000000  -0.000000   0.000000)

--------------------------
THERMOCHEMISTRY AT 298.15K
--------------------------

Temperature         ... 298.15 K
Pressure            ... 1.00 atm
Total Mass          ... 2.02 AMU
The molecule is recognized as being linear

Throughout the following assumptions are being made:
  (1) The electronic state is orbitally nondegenerate
  (2) There are no thermally accessible electronically excited states
  (3) Hindered rotations indicated by low frequency modes are not
      treated as such but are treated as vibrations and this may
      cause some error
  (4) All equations used are the standard statistical mechanics
      equations for an ideal gas
  (5) All vibrations are strictly harmonic

freq.    4350.43  E(vib)   ...       0.00

------------
INNER ENERGY
------------

The inner energy is: U= E(el) + E(ZPE) + E(vib) + E(rot) + E(trans)
    E(el)   - is the total energy from the electronic structure calculation
              = E(kin-el) + E(nuc-el) + E(el-el) + E(nuc-nuc)
    E(ZPE)  - the the zero temperature vibrational energy from the frequency calculation
    E(vib)  - the the finite temperature correction to E(ZPE) due to population
              of excited vibrational states
    E(rot)  - is the rotational thermal energy
    E(trans)- is the translational thermal energy

Summary of contributions to the inner energy U:
Electronic energy                ...     -1.16954535 Eh
Zero point energy                ...      0.00991101 Eh       6.22 kcal/mol
Thermal vibrational correction   ...      0.00000000 Eh       0.00 kcal/mol
Thermal rotational correction    ...      0.00094418 Eh       0.59 kcal/mol
Thermal translational correction ...      0.00141627 Eh       0.89 kcal/mol
-----------------------------------------------------------------------
Total thermal energy                     -1.15727388 Eh

Summary of corrections to the electronic energy:
(perhaps to be used in another calculation)
Total thermal correction                  0.00236045 Eh       1.48 kcal/mol
Non-thermal (ZPE) correction              0.00991101 Eh       6.22 kcal/mol
-----------------------------------------------------------------------
Total correction                          0.01227146 Eh       7.70 kcal/mol

--------
ENTHALPY
--------

The enthalpy is H = U + kB*T
                kB is Boltzmann's constant
Total free energy                 ...     -1.15727388 Eh
Thermal Enthalpy correction       ...      0.00094421 Eh       0.59 kcal/mol
-----------------------------------------------------------------------
Total Enthalpy                    ...     -1.15632967 Eh

Note: Rotational entropy computed according to Herzberg
Infrared and Raman Spectra, Chapter V,1, Van Nostrand Reinhold, 1945
Point Group:  Dinfh, Symmetry Number:   2
Rotational constants in cm-1:     0.000000    59.848983    59.848983

Vibrational entropy computed according to the QRRHO of S. Grimme
Chem.Eur.J. 2012 18 9955

-------
ENTROPY
-------

The entropy contributions are T*S = T*(S(el)+S(vib)+S(rot)+S(trans))
     S(el)   - electronic entropy
     S(vib)  - vibrational entropy
     S(rot)  - rotational entropy
     S(trans)- translational entropy
The entropies will be listed as mutliplied by the temperature to get
units of energy

Electronic entropy                ...      0.00000000 Eh      0.00 kcal/mol
Vibrational entropy               ...     -0.00000000 Eh     -0.00 kcal/mol
Rotational entropy                ...      0.00146238 Eh      0.92 kcal/mol
Translational entropy             ...      0.01334204 Eh      8.37 kcal/mol
-----------------------------------------------------------------------
Final entropy term                ...      0.01480442 Eh      9.29 kcal/mol

In case the symmetry of your molecule has not been determined correctly
or in case you have a reason to use a different symmetry number we print
out the resulting rotational entropy values for sn=1,12 :
 --------------------------------------------------------
|  sn= 1 | S(rot)=             -inf Eh      -inf kcal/mol|
|  sn= 2 | S(rot)=             -inf Eh      -inf kcal/mol|
|  sn= 3 | S(rot)=             -inf Eh      -inf kcal/mol|
|  sn= 4 | S(rot)=             -inf Eh      -inf kcal/mol|
|  sn= 5 | S(rot)=             -inf Eh      -inf kcal/mol|
|  sn= 6 | S(rot)=             -inf Eh      -inf kcal/mol|
|  sn= 7 | S(rot)=             -inf Eh      -inf kcal/mol|
|  sn= 8 | S(rot)=             -inf Eh      -inf kcal/mol|
|  sn= 9 | S(rot)=             -inf Eh      -inf kcal/mol|
|  sn=10 | S(rot)=             -inf Eh      -inf kcal/mol|
|  sn=11 | S(rot)=             -inf Eh      -inf kcal/mol|
|  sn=12 | S(rot)=             -inf Eh      -inf kcal/mol|
 --------------------------------------------------------

-------------------
GIBBS FREE ENERGY
-------------------

The Gibbs free energy is G = H - T*S

Total enthalpy                    ...     -1.15632967 Eh
Total entropy correction          ...     -0.01480442 Eh     -9.29 kcal/mol
-----------------------------------------------------------------------
Final Gibbs free energy         ...     -1.17113410 Eh

For completeness - the Gibbs free energy minus the electronic energy
G-E(el)                           ...     -0.00158875 Eh     -1.00 kcal/mol

                             ****ORCA TERMINATED NORMALLY****
TOTAL RUN TIME: 0 days 0 hours 0 minutes 9 seconds 703 msec
