                         Program Version 4.2.1 -  RELEASE  -
|  1> ! DLPNO-CCSD(T) gCP(HF/TZ) def2-TZVP def2-TZVP/C TightSCF Grid5 NoFinalGrid GridX6 NoFinalGridX PrintBasis PrintMOs NBO
|  2>
|  3> %pal
|  4>  nprocs 8
|  5> end
|  6>
|  7> *xyzfile 0 1 init.xyz
|  8>
|  9>                          ****END OF INPUT****

CARTESIAN COORDINATES (ANGSTROEM)
---------------------------------
  N     -2.446414   -2.768264    0.015150
  H     -1.424443   -2.811571   -0.007254
  H     -2.764064   -3.609170    0.503792
  H     -2.764069   -2.855325   -0.953517

 Total Charge           Charge          ....    0
 Multiplicity           Mult            ....    1
 Number of Electrons    NEL             ....   10
 Basis Dimension        Dim             ....   49

ORBITAL ENERGIES
----------------

  NO   OCC          E(Eh)            E(eV)
   0   2.0000     -15.541269      -422.8994
   1   2.0000      -1.134796       -30.8794
   2   2.0000      -0.622273       -16.9329
   3   2.0000      -0.622263       -16.9326
   4   2.0000      -0.427690       -11.6380
   5   0.0000       0.127573         3.4714
   6   0.0000       0.212364         5.7787
   7   0.0000       0.212366         5.7788
   8   0.0000       0.441836        12.0230
   9   0.0000       0.441841        12.0231

------------------
MOLECULAR ORBITALS
------------------
                      0         1         2         3         4         5
                 -15.54127  -1.13480  -0.62227  -0.62226  -0.42769   0.12757
                   2.00000   2.00000   2.00000   2.00000   2.00000   0.00000
                  --------  --------  --------  --------  --------  --------
  0N   1s         0.448967 -0.091957  0.000000 -0.000001  0.029217 -0.032066
  0N   2s         0.630213 -0.214714  0.000000 -0.000002  0.069468 -0.083630
  0N   3s         0.020110  0.312599 -0.000000  0.000003 -0.111648  0.262621
  0N   4s        -0.007492  0.408165 -0.000001  0.000005 -0.184894 -0.448471
  0N   5s         0.005096  0.115412 -0.000001  0.000004 -0.129857  2.484677
  0N   1pz       -0.000795 -0.023738  0.292956 -0.050716 -0.170156 -0.037758
  0N   1px        0.000611  0.018268 -0.000208 -0.311005  0.130934  0.029057
  0N   1py       -0.001536 -0.045890 -0.151626 -0.097561 -0.328938 -0.072992
  0N   2pz        0.000432 -0.022674  0.254216 -0.044010 -0.156893  0.003872
  0N   2px       -0.000333  0.017450 -0.000181 -0.269879  0.120728 -0.002981
  0N   2py        0.000836 -0.043833 -0.131575 -0.084660 -0.303299  0.007488
  0N   3pz       -0.000367 -0.002902  0.114869 -0.019887 -0.141345 -0.204159
  0N   3px        0.000282  0.002233 -0.000082 -0.121950  0.108765  0.157119
  0N   3py       -0.000709 -0.005610 -0.059453 -0.038255 -0.273243 -0.394672
  0N   1dz2      -0.000000  0.000842 -0.010878  0.008898 -0.000653 -0.000802
  0N   1dxz      -0.000001  0.000964 -0.005781  0.002789 -0.000747 -0.000918
  0N   1dyz       0.000001 -0.002421 -0.008899 -0.001938  0.001877  0.002307
  0N   1dx2y2    -0.000001  0.001969 -0.006292 -0.012643 -0.001527 -0.001876
  0N   1dxy      -0.000001  0.001863  0.002995  0.005382 -0.001444 -0.001775
  0N   2dz2       0.000010  0.000755 -0.020092  0.009695 -0.005655 -0.003555
  0N   2dxz       0.000012  0.000864 -0.000475  0.008074 -0.006472 -0.004067
  0N   2dyz      -0.000029 -0.002171 -0.016428  0.002312  0.016258  0.010219
  0N   2dx2y2     0.000024  0.001766 -0.011617 -0.020019 -0.013225 -0.008311
  0N   2dxy       0.000022  0.001670  0.000259  0.015607 -0.012512 -0.007863
  0N   1f0       -0.000125 -0.003612  0.000488 -0.001149 -0.002092  0.004087
  0N   1f+1      -0.000162 -0.003778  0.001699  0.000353  0.000374  0.005312
  0N   1f-1      -0.000027 -0.000686 -0.001507 -0.000005 -0.000114  0.000891
  0N   1f+2      -0.000077 -0.002569 -0.000293 -0.001524 -0.002436  0.002523
  0N   1f-2       0.000061  0.000720  0.001522  0.001187 -0.002560 -0.002019
  0N   1f+3      -0.000138 -0.004045 -0.001314  0.001831 -0.002476  0.004523
  0N   1f-3      -0.000024 -0.000185  0.000107  0.001003  0.001316  0.000785
  1H   1s         0.000161  0.085708 -0.000110 -0.164299  0.043826 -0.011300
  1H   2s         0.000020  0.083736 -0.000159 -0.236315  0.053575  0.057843
  1H   3s        -0.000854  0.006806 -0.000054 -0.080932  0.024082 -1.126603
  1H   1pz       -0.000032 -0.000442  0.010841 -0.002506 -0.007754  0.000407
  1H   1px        0.000191 -0.016406  0.000016  0.024262 -0.003357 -0.042090
  1H   1py       -0.000062 -0.000854 -0.005612 -0.004827 -0.014991  0.000787
  2H   1s         0.000161  0.085707  0.142343  0.082053  0.043828 -0.011301
  2H   2s         0.000020  0.083735  0.204733  0.118018  0.053578  0.057845
  2H   3s        -0.000854  0.006805  0.070112  0.040418  0.024084 -1.126601
  2H   1pz        0.000053 -0.008959 -0.004163 -0.010526 -0.012497 -0.020842
  2H   1px       -0.000031  0.005921  0.009763 -0.005878  0.009075  0.013611
  2H   1py       -0.000194  0.012440  0.019712  0.010987 -0.007589  0.033951
  3H   1s         0.000161  0.085707 -0.142232  0.082244  0.043828 -0.011302
  3H   2s         0.000020  0.083735 -0.204574  0.118293  0.053579  0.057844
  3H   3s        -0.000854  0.006805 -0.070058  0.040512  0.024084 -1.126600
  3H   1pz       -0.000189  0.015329 -0.018474  0.015074  0.001027  0.039752
  3H   1px       -0.000031  0.005921 -0.009771 -0.005864  0.009075  0.013611
  3H   1py       -0.000069 -0.000125 -0.007995 -0.002232 -0.014585  0.002607
                      6         7         8         9        10        11
                   0.21236   0.21237   0.44184   0.44184   0.50360   0.62796
                   0.00000   0.00000   0.00000   0.00000   0.00000   0.00000
                  --------  --------  --------  --------  --------  --------
  0N   1s         0.000000 -0.000000  0.000000 -0.000000 -0.026949 -0.059218
  0N   2s         0.000000 -0.000001  0.000001 -0.000000 -0.054937 -0.119300
  0N   3s         0.000000  0.000002 -0.000003  0.000000 -0.093310 -0.270707
  0N   4s        -0.000003  0.000002  0.000001 -0.000002  1.003266  3.189408
  0N   5s         0.000005  0.000012 -0.000032 -0.000006 -0.282550 -5.793170
  0N   1pz        0.176046 -0.020967  0.001409 -0.009107  0.096756 -0.061469
  0N   1px        0.009679 -0.185202  0.009640 -0.000167 -0.074454  0.047302
  0N   1py       -0.087214 -0.062876  0.003108  0.004645  0.187045 -0.118827
  0N   2pz       -0.069795  0.008310  0.033535 -0.216851  0.265225 -0.217471
  0N   2px       -0.003836  0.073415  0.229478 -0.003970 -0.204083  0.167346
  0N   2py        0.034578  0.024924  0.073993  0.110595  0.512721 -0.420401
  0N   3pz        0.904098 -0.107674  0.253286 -1.637649 -0.586645  0.503058
  0N   3px        0.049705 -0.951101  1.733054 -0.029981  0.451475 -0.387140
  0N   3py       -0.447893 -0.322896  0.558854  0.835202 -1.134086  0.972482
  0N   1dz2       0.000716 -0.001689  0.020675 -0.024450  0.000863  0.000651
  0N   1dxz       0.002145  0.000479  0.005287 -0.015039  0.000987  0.000744
  0N   1dyz       0.000451  0.001196 -0.005882 -0.019593 -0.002479 -0.001871
  0N   1dx2y2     0.000292  0.001344 -0.028927 -0.013410  0.002017  0.001522
  0N   1dxy      -0.001156  0.000649  0.010854  0.007544  0.001909  0.001439
  0N   2dz2       0.053722 -0.052153 -0.136206  0.170727  0.003301  0.004343
  0N   2dxz       0.047484 -0.004779 -0.040767  0.092626  0.003777  0.004967
  0N   2dyz       0.040494  0.022858  0.033865  0.137052 -0.009494 -0.012481
  0N   2dx2y2     0.025933  0.067183  0.198062  0.093784  0.007725  0.010148
  0N   2dxy      -0.023636 -0.015270 -0.082703 -0.046118  0.007301  0.009603
  0N   1f0       -0.003258  0.007757  0.017260 -0.006797 -0.006461 -0.010965
  0N   1f+1      -0.006337 -0.003963 -0.007684 -0.016668 -0.008237 -0.012290
  0N   1f-1      -0.003064  0.002112  0.003920 -0.000207 -0.001391 -0.002173
  0N   1f+2       0.004367  0.003304  0.010424  0.008574 -0.004048 -0.007494
  0N   1f-2      -0.005762 -0.001866 -0.006835 -0.014927  0.003006  0.003140
  0N   1f+3       0.005393 -0.006216 -0.016922  0.013307 -0.007159 -0.012236
  0N   1f-3       0.003382  0.004427  0.004115  0.005788 -0.001152 -0.001017
  1H   1s        -0.000640  0.012252 -0.089884  0.001554 -0.011536 -0.050019
  1H   2s         0.018169 -0.347679 -1.555423  0.026903 -0.446509 -0.149776
  1H   3s        -0.125438  2.400372 -0.286296  0.004954  0.084019  1.387763
  1H   1pz        0.005732 -0.003199  0.001841 -0.010138  0.003792 -0.003152
  1H   1px       -0.004278  0.081854  0.141064 -0.002440  0.034441  0.037732
  1H   1py       -0.002518 -0.006895  0.003986  0.005159  0.007330 -0.006092
  2H   1s        -0.010288 -0.006681  0.046292  0.077063 -0.011535 -0.050021
  2H   2s         0.292020  0.189575  0.801037  1.333634 -0.446474 -0.149803
  2H   3s        -2.016053 -1.308829  0.147433  0.245543  0.084045  1.387775
  2H   1pz       -0.028928 -0.023081 -0.032767 -0.067308  0.022790  0.014809
  2H   1px        0.022690  0.008639  0.033243  0.037303 -0.015369 -0.009344
  2H   1py        0.058543  0.037806  0.056559  0.093573 -0.022325 -0.034123
  3H   1s         0.010929 -0.005573  0.043599 -0.078617 -0.011535 -0.050021
  3H   2s        -0.310187  0.158103  0.754437 -1.360538 -0.446471 -0.149804
  3H   3s         2.141486 -1.091560  0.138852 -0.250488  0.084048  1.387781
  3H   1pz       -0.068750  0.037229  0.061069 -0.117444 -0.031389 -0.036406
  3H   1px       -0.023467  0.006227  0.031934 -0.038430 -0.015369 -0.009344
  3H   1py       -0.010474  0.001925  0.005963  0.000662  0.005701 -0.007629
                     12        13        14        15        16        17
                   0.66758   0.72006   0.72006   1.13189   1.13190   1.36744
                   0.00000   0.00000   0.00000   0.00000   0.00000   0.00000
                  --------  --------  --------  --------  --------  --------
  0N   1s         0.013887  0.000000  0.000000  0.000000  0.000000 -0.002177
  0N   2s         0.038256  0.000001  0.000001  0.000000  0.000000 -0.009771
  0N   3s        -0.011845 -0.000000  0.000002 -0.000000 -0.000002  0.205030
  0N   4s         0.039207  0.000003 -0.000015  0.000002  0.000010 -0.356938
  0N   5s        -3.658752 -0.000128 -0.000003 -0.000004 -0.000044 -2.635162
  0N   1pz        0.044937 -0.067669 -0.290675  0.035457  0.005206  0.040704
  0N   1px       -0.034568 -0.311666  0.018090  0.000935  0.037477 -0.031320
  0N   1py        0.086865 -0.089053  0.157564 -0.017970  0.012222  0.078686
  0N   2pz        0.226288 -0.248237 -1.066348  0.071642  0.010520  0.132816
  0N   2px       -0.174107 -1.143340  0.066362  0.001888  0.075716 -0.102182
  0N   2py        0.437440 -0.326683  0.578031 -0.036308  0.024695  0.256760
  0N   3pz        0.314758  0.363573  1.561675  0.128238  0.018835  0.351465
  0N   3px       -0.242395  1.674435 -0.097190  0.003379  0.135532 -0.270473
  0N   3py        0.608528  0.478479 -0.846520 -0.064990  0.044214  0.679444
  0N   1dz2       0.003638 -0.003554  0.000961 -0.005056  0.003484  0.004769
  0N   1dxz       0.004163  0.001678 -0.006094  0.008591 -0.004819  0.005457
  0N   1dyz      -0.010460  0.003584  0.000409 -0.004343 -0.005583 -0.013711
  0N   1dx2y2     0.008508  0.001232  0.000364 -0.002911  0.002314  0.011152
  0N   1dxy       0.008047  0.004094  0.002864 -0.004725 -0.008784  0.010550
  0N   2dz2       0.004019  0.028737  0.032192  0.246470 -0.293300 -0.236462
  0N   2dxz       0.004601  0.009948  0.016218 -0.606400  0.295206 -0.270554
  0N   2dyz      -0.011550 -0.003739  0.027897  0.216968  0.381618  0.679747
  0N   2dx2y2     0.009395 -0.037689  0.021738  0.145168 -0.054241 -0.552869
  0N   2dxy       0.008893  0.016850 -0.009666  0.330787  0.533207 -0.523020
  0N   1f0        0.019804 -0.009098 -0.002868  0.002330  0.005753  0.027655
  0N   1f+1       0.024541  0.003128 -0.009382  0.005692 -0.002583  0.022487
  0N   1f-1       0.004185 -0.001687  0.001484 -0.000278  0.001259  0.004539
  0N   1f+2       0.012667 -0.005829  0.004563 -0.002767  0.003704  0.022046
  0N   1f-2      -0.008393  0.003613 -0.008449  0.005092 -0.002504  0.001964
  0N   1f+3       0.021979  0.009866  0.006555 -0.004603 -0.005785  0.031302
  0N   1f-3       0.003139 -0.000694  0.002578 -0.001816  0.001089 -0.002158
  1H   1s         0.041271  0.078948 -0.004582  0.000387  0.015519 -0.021203
  1H   2s         1.533692  0.974027 -0.056525 -0.004835 -0.193959  1.193354
  1H   3s         0.251040 -2.070225  0.120167  0.000057  0.002245  0.259675
  1H   1pz        0.014251 -0.004284 -0.025167 -0.144333  0.078979 -0.049375
  1H   1px       -0.078930 -0.053325  0.003094  0.000569  0.022828 -0.104389
  1H   1py        0.027548 -0.004679  0.013419  0.079265  0.143747 -0.095450
  2H   1s         0.041275 -0.035504  0.070661  0.013246 -0.008091 -0.021209
  2H   2s         1.533660 -0.437972  0.871781 -0.165569  0.101187  1.193441
  2H   3s         0.250909  0.931058 -1.852951  0.001910 -0.001163  0.259644
  2H   1pz       -0.020309 -0.000764 -0.035180  0.049856 -0.141750 -0.121814
  2H   1px        0.011689 -0.030133  0.008021 -0.142575 -0.070444  0.085455
  2H   1py        0.081501 -0.018042  0.034217  0.067261 -0.046250  0.017590
  3H   1s         0.041276 -0.043441 -0.066077 -0.013633 -0.007421 -0.021209
  3H   2s         1.533659 -0.535890 -0.815220  0.170406  0.092809  1.193437
  3H   3s         0.250872  1.139190  1.732774 -0.001965 -0.001066  0.259641
  3H   1pz        0.078253 -0.019770 -0.046274 -0.023858  0.045402  0.084739
  3H   1px        0.011688 -0.030859 -0.004481  0.138887 -0.077461  0.085456
  3H   1py        0.030516 -0.009939  0.010162 -0.086553 -0.138276 -0.089259
                     18        19        20        21        22        23
                   1.47033   1.47034   1.86931   1.99304   1.99305   2.09350
                   0.00000   0.00000   0.00000   0.00000   0.00000   0.00000
                  --------  --------  --------  --------  --------  --------
  0N   1s        -0.000000 -0.000000  0.000000 -0.000000 -0.000000 -0.058710
  0N   2s        -0.000000 -0.000000  0.000000 -0.000001 -0.000001 -0.201917
  0N   3s        -0.000001  0.000002 -0.000000  0.000011  0.000019  1.966198
  0N   4s         0.000032 -0.000008  0.000000 -0.000032 -0.000056 -4.974668
  0N   5s        -0.000095 -0.000024 -0.000000  0.000010  0.000034  0.993731
  0N   1pz        0.000386  0.036543 -0.000021  0.245906  0.029424 -0.213373
  0N   1px        0.037733  0.006097  0.000002  0.013372  0.258709  0.164193
  0N   1py        0.014824 -0.016476  0.000012 -0.121886  0.087749 -0.412485
  0N   2pz       -0.012280 -1.165834  0.000105 -0.553235 -0.066186  0.571453
  0N   2px       -1.203936 -0.194549 -0.000009 -0.030080 -0.581941 -0.439779
  0N   2py       -0.472882  0.525635 -0.000058  0.274220 -0.197391  1.104736
  0N   3pz       -0.009207 -0.875630 -0.000020  0.461490  0.055222 -0.054856
  0N   3px       -0.904198 -0.146117  0.000004  0.025093  0.485522  0.042168
  0N   3py       -0.355129  0.394798  0.000012 -0.228738  0.164684 -0.106041
  0N   1dz2      -0.006474 -0.010164  0.000001 -0.017422 -0.007643 -0.003753
  0N   1dxz      -0.001068 -0.006028 -0.000000 -0.001267 -0.006625 -0.004295
  0N   1dyz       0.003330 -0.006915  0.000001 -0.013966 -0.000929  0.010793
  0N   1dx2y2     0.011476 -0.003409  0.000001 -0.008921  0.017596 -0.008779
  0N   1dxy      -0.004324  0.002330  0.000000 -0.000190 -0.012925 -0.008304
  0N   2dz2       0.835708  1.232463 -0.000063  0.412561  0.220688 -0.126380
  0N   2dxz       0.090111  0.807213 -0.000036  0.090488  0.135218 -0.144587
  0N   2dyz      -0.450240  0.824345 -0.000055  0.327226 -0.013650  0.363289
  0N   2dx2y2    -1.409154  0.405891 -0.000043  0.209145 -0.434596 -0.295478
  0N   2dxy       0.480070 -0.332448  0.000021 -0.029140  0.271939 -0.279506
  0N   1f0       -0.060534 -0.033722 -0.007194 -0.011596 -0.027234  0.127977
  0N   1f+1       0.037902 -0.050320  0.003549 -0.023986  0.013600  0.146334
  0N   1f-1      -0.014534 -0.021825  0.005972 -0.006327 -0.006916  0.025687
  0N   1f+2      -0.033525  0.031407  0.008213  0.014390 -0.013998  0.086392
  0N   1f-2       0.023129 -0.046808  0.003178 -0.021655  0.008801 -0.040004
  0N   1f+3       0.048108  0.051496 -0.002748  0.020355  0.023787  0.142669
  0N   1f-3      -0.034789  0.022794  0.004280  0.010649 -0.011790  0.013478
  1H   1s        -0.201410 -0.032547 -0.000002 -0.001982 -0.038296 -0.460360
  1H   2s         2.742929  0.443241  0.000011  0.030804  0.595793  2.004410
  1H   3s        -0.432557 -0.069895 -0.000006 -0.024484 -0.473685 -0.575294
  1H   1pz        0.031146  0.051879 -0.545294 -0.417934 -0.322498  0.123043
  1H   1px       -0.478735 -0.077361 -0.000005 -0.016340 -0.316086 -0.578032
  1H   1py        0.078287 -0.011582  0.282067  0.172735 -0.674134  0.237851
  2H   1s         0.128893 -0.158153  0.000027 -0.032208  0.020857 -0.460355
  2H   2s        -1.755302  2.153838 -0.000154  0.500715 -0.324545  2.004405
  2H   3s         0.276833 -0.339612  0.000069 -0.398038  0.258030 -0.575329
  2H   1pz        0.144802 -0.130140  0.354153 -0.677806  0.129408 -0.122800
  2H   1px       -0.043865  0.121123  0.501268  0.184023 -0.558283  0.066454
  2H   1py       -0.274733  0.339303  0.016379 -0.176958  0.100429  0.621568
  3H   1s         0.072521  0.190701 -0.000025  0.034184  0.017428 -0.460357
  3H   2s        -0.987585 -2.597050  0.000143 -0.531483 -0.271206  2.004392
  3H   3s         0.155776  0.409519 -0.000062  0.422509  0.215626 -0.575330
  3H   1pz       -0.181319 -0.431176  0.191264 -0.245144  0.032638  0.578257
  3H   1px       -0.003484 -0.128775 -0.501275 -0.240595 -0.536332  0.066454
  3H   1py       -0.010199 -0.098035 -0.298515  0.668839  0.095212  0.258907
                     24        25        26        27        28        29
                   2.27941   2.34810   2.34810   2.61169   2.61605   2.61606
                   0.00000   0.00000   0.00000   0.00000   0.00000   0.00000
                  --------  --------  --------  --------  --------  --------
  0N   1s         0.069468  0.000000 -0.000001 -0.053584  0.000011  0.000319
  0N   2s         0.238994  0.000001 -0.000004 -0.199738  0.000041  0.001191
  0N   3s        -1.758442 -0.000008  0.000025  1.471692 -0.000301 -0.008793
  0N   4s         3.100805  0.000011 -0.000028 -2.176914  0.000450  0.012990
  0N   5s        -1.189635 -0.000011 -0.000001  2.649189 -0.000545 -0.015877
  0N   1pz       -0.280674  0.617654 -0.412139  0.266929 -0.107626 -0.021251
  0N   1px        0.215946 -0.315075 -0.709967 -0.206219  0.001123 -0.113186
  0N   1py       -0.542573 -0.444915 -0.069382  0.516083  0.055958 -0.038607
  0N   2pz        0.136113 -1.772722  1.182875 -0.491803  0.614735  0.114994
  0N   2px       -0.104599  0.904253  2.037562  0.383106 -0.006227  0.651240
  0N   2py        0.263079  1.276940  0.199139 -0.951147 -0.320179  0.208144
  0N   3pz       -0.226961  0.658661 -0.439506 -0.131915  0.116820  0.022042
  0N   3px        0.174633 -0.336002 -0.757118  0.102418 -0.001184  0.123462
  0N   3py       -0.438738 -0.474458 -0.073998 -0.255101 -0.060828  0.039914
  0N   1dz2       0.003942  0.009735 -0.012826  0.011815 -0.021136 -0.033387
  0N   1dxz       0.004514 -0.000454 -0.005527  0.013758 -0.035020  0.000886
  0N   1dyz      -0.011339  0.010230 -0.005365 -0.034464 -0.017687  0.017513
  0N   1dx2y2     0.009226  0.013337  0.009982  0.028313 -0.012693  0.032333
  0N   1dxy       0.008727 -0.004970 -0.008868  0.026619  0.018078  0.002519
  0N   2dz2      -0.099233 -0.123095 -0.329027 -0.115769 -0.179595  0.579014
  0N   2dxz      -0.113604  0.528388 -0.081589 -0.138418  1.004237 -0.348504
  0N   2dyz       0.285303  0.135490  0.263056  0.339151 -0.136809 -0.603844
  0N   2dx2y2    -0.232086  0.087780  0.167962 -0.279852 -0.099044 -0.153576
  0N   2dxy      -0.219611 -0.134403  0.355243 -0.268250 -0.511145 -0.696769
  0N   1f0       -0.035760  0.006849  0.100995 -0.042554  0.029848  0.080900
  0N   1f+1      -0.058828 -0.093438 -0.004959 -0.091254  0.083506 -0.031600
  0N   1f-1      -0.009163 -0.010636  0.032233 -0.013183 -0.013661  0.015732
  0N   1f+2      -0.017507  0.065420  0.019039 -0.013253 -0.038315  0.055132
  0N   1f-2       0.032009 -0.078418  0.007396  0.061866  0.074822 -0.037120
  0N   1f+3      -0.038944  0.025073 -0.102747 -0.046356 -0.063613 -0.086133
  0N   1f-3      -0.013724  0.052256  0.021024 -0.027741 -0.022541  0.006671
  1H   1s         0.191861  0.208478  0.469758  0.346934 -0.004543  0.473614
  1H   2s        -0.654062 -0.810293 -1.825814 -0.684254  0.008101 -0.842516
  1H   3s         0.271752  0.494849  1.115031 -0.285504 -0.002530  0.276889
  1H   1pz        0.194937 -0.255484 -0.104493  0.256763 -0.859259  0.200586
  1H   1px        0.180617  0.298837  0.673366  0.074979 -0.002282  0.240653
  1H   1py        0.376845 -0.065790 -0.391986  0.496936  0.439506  0.407503
  2H   1s         0.191809 -0.511071 -0.054334  0.342678  0.414142 -0.236098
  2H   2s        -0.653904  1.986387  0.211175 -0.676623 -0.737056  0.420577
  2H   3s         0.271691 -1.213054 -0.128975 -0.287979  0.239600 -0.133655
  2H   1pz        0.363033 -0.110189  0.113113  0.388965  0.087615 -0.691274
  2H   1px       -0.260202  0.022457  0.179119 -0.290298 -0.645356 -0.538751
  2H   1py        0.114402  0.842805  0.095363  0.279389  0.062656 -0.066766
  3H   1s         0.191802  0.302598 -0.415439  0.342456 -0.409820 -0.243841
  3H   2s        -0.653868 -1.176097  1.614667 -0.676216  0.729381  0.434349
  3H   3s         0.271673  0.718212 -0.986058 -0.288104 -0.236897 -0.138128
  3H   1pz       -0.116373 -0.494966  0.565668  0.003291 -0.007006  0.344856
  3H   1px       -0.260199  0.117755  0.136827 -0.289942  0.655520 -0.526526
  3H   1py        0.362401 -0.157056  0.393326  0.478838 -0.096631 -0.604698
                     30        31        32        33        34        35
                   2.76444   2.80789   2.80790   3.30313   3.56392   3.56399
                   0.00000   0.00000   0.00000   0.00000   0.00000   0.00000
                  --------  --------  --------  --------  --------  --------
  0N   1s         0.075395  0.000007  0.000003 -0.025339 -0.000001  0.000000
  0N   2s         0.270329  0.000024  0.000011 -0.047738  0.000001  0.000001
  0N   3s        -1.730727 -0.000142 -0.000055 -1.227108 -0.000148  0.000011
  0N   4s         1.846347  0.000119  0.000024  5.734705  0.000548 -0.000063
  0N   5s        -3.109367 -0.000268 -0.000129 -0.174833 -0.000032  0.000002
  0N   1pz        0.336257 -0.588884  0.496548  0.061416 -0.070166  0.492643
  0N   1px       -0.258650 -0.616531 -0.518814 -0.047214 -0.520307  0.015229
  0N   1py        0.649993  0.059282 -0.463347  0.118707 -0.170788 -0.248777
  0N   2pz       -0.364489 -0.409348  0.345115 -0.883906  0.428192 -3.006658
  0N   2px        0.280506 -0.428493 -0.360592  0.679901  3.175488 -0.092936
  0N   2py       -0.704650  0.041127 -0.322066 -1.708690  1.042288  1.518340
  0N   3pz        0.365701 -0.452833  0.381846 -0.034014 -0.004824  0.033824
  0N   3px       -0.281347 -0.474102 -0.398956  0.026191 -0.035745  0.001046
  0N   3py        0.706924  0.045610 -0.356291 -0.065762 -0.011739 -0.017079
  0N   1dz2      -0.005689 -0.040732  0.001141 -0.022098  0.136093 -0.108348
  0N   1dxz      -0.006509 -0.019901  0.018484 -0.025272 -0.000814 -0.137212
  0N   1dyz       0.016356 -0.005009  0.024736  0.063495 -0.068300 -0.083317
  0N   1dx2y2    -0.013302  0.017152  0.034882 -0.051629 -0.149595 -0.055879
  0N   1dxy      -0.012584  0.004060 -0.014807 -0.048853  0.008256  0.070749
  0N   2dz2      -0.072647  0.691612  0.010858  0.133299 -0.837291  1.172562
  0N   2dxz      -0.083155  0.350097 -0.363462  0.152407 -0.307344  0.518711
  0N   2dyz       0.208806  0.050428 -0.424462 -0.382913  0.174446  0.933398
  0N   2dx2y2    -0.169856 -0.293822 -0.577007  0.311297  1.319608  0.624223
  0N   2dxy      -0.160735 -0.117651  0.241411  0.294613 -0.630661 -0.245211
  0N   1f0        0.116751 -0.113711 -0.041055 -0.021653 -0.159814  0.066146
  0N   1f+1       0.120711 -0.028604  0.111207 -0.063640  0.071406  0.164090
  0N   1f-1       0.022020 -0.032459 -0.005333 -0.008652 -0.032987 -0.022934
  0N   1f+2       0.083531 -0.005797 -0.083505 -0.000235 -0.111835 -0.073453
  0N   1f-2      -0.021666 -0.032873  0.093478  0.051925  0.078034  0.146524
  0N   1f+3       0.130779  0.131726  0.006060 -0.022133  0.167333 -0.133618
  0N   1f-3       0.005208 -0.002282 -0.058681 -0.023871 -0.017627 -0.045830
  1H   1s        -0.381023 -0.129652 -0.109095 -0.293146 -0.867407  0.025385
  1H   2s         0.898089  1.370683  1.153438 -1.985423 -2.193791  0.064209
  1H   3s         0.418728  0.024602  0.020688  0.261158  0.466102 -0.013641
  1H   1pz        0.112187 -0.061540  0.152346  0.052089  0.007324  0.440649
  1H   1px       -0.367843 -0.987156 -0.830704  1.371627  1.353888 -0.039626
  1H   1py        0.216878  0.127469  0.001660  0.100693 -0.017421 -0.227545
  2H   1s        -0.381101 -0.029663  0.166752 -0.293251  0.455627  0.738491
  2H   2s         0.898286  0.313619 -1.763564 -1.985738  1.152227  1.867667
  2H   3s         0.418725  0.005682 -0.031625  0.261227 -0.244822 -0.396811
  2H   1pz       -0.031113 -0.202273  0.558441  0.770236 -0.601087 -0.429445
  2H   1px        0.007533 -0.075235 -0.396965 -0.510668 -0.110722  0.592033
  2H   1py        0.440434  0.186510 -1.075533 -1.020153  0.557091  0.928186
  3H   1s        -0.381114  0.159221 -0.057705 -0.293256  0.411663 -0.763859
  3H   2s         0.898369 -1.684034  0.610293 -1.985755  1.041043 -1.931813
  3H   3s         0.418722 -0.030175  0.010984  0.261235 -0.221200  0.410443
  3H   1pz        0.377501 -1.136857  0.470238 -1.277677  0.741815 -1.050853
  3H   1px        0.007555 -0.403989 -0.006300 -0.510681 -0.145141 -0.584542
  3H   1py        0.229092 -0.173012 -0.028189  0.039196 -0.179280 -0.175622
                     36        37        38        39        40        41
                   4.42676   4.67710   4.67711   4.80462   5.02182   5.02183
                   0.00000   0.00000   0.00000   0.00000   0.00000   0.00000
                  --------  --------  --------  --------  --------  --------
  0N   1s         0.002101 -0.000000 -0.000000  0.000000  0.000000  0.000000
  0N   2s         0.003906 -0.000000 -0.000000  0.000000 -0.000001  0.000000
  0N   3s         0.097122 -0.000004  0.000001 -0.000000  0.000045  0.000003
  0N   4s        -0.443610  0.000014 -0.000002  0.000000 -0.000173 -0.000013
  0N   5s        -0.299620  0.000023 -0.000000  0.000000  0.000051  0.000005
  0N   1pz       -0.043642 -0.019264 -0.100871 -0.000014  0.006109  0.035960
  0N   1px        0.033605 -0.107399  0.001929 -0.000000  0.038143  0.000089
  0N   1py       -0.084370 -0.032785  0.052947  0.000007  0.012012 -0.018567
  0N   2pz        0.187255  0.107508  0.562956  0.000062 -0.050211 -0.295556
  0N   2px       -0.144225  0.599384 -0.010769  0.000002 -0.313514 -0.000732
  0N   2py        0.362011  0.182967 -0.295493 -0.000032 -0.098732  0.152604
  0N   3pz        0.054382  0.018816  0.098552  0.000027 -0.001212 -0.007122
  0N   3px       -0.041864  0.104917 -0.001885 -0.000001 -0.007556 -0.000017
  0N   3py        0.105132  0.032022 -0.051730 -0.000015 -0.002385  0.003677
  0N   1dz2       0.023544 -0.058549  0.250375  0.000055  0.358119 -0.410120
  0N   1dxz       0.026969  0.174897 -0.274447 -0.000026 -0.408589  0.829736
  0N   1dyz      -0.067718  0.192272  0.200353  0.000043 -0.531597 -0.337147
  0N   1dx2y2     0.055099 -0.155300  0.146736  0.000033  0.135696 -0.236950
  0N   1dxy       0.052137  0.350046  0.134054  0.000010 -0.785172 -0.431524
  0N   2dz2       0.025668 -0.182707 -0.227534 -0.000029 -0.190165  0.420435
  0N   2dxz       0.029357 -0.065282 -0.106433  0.000006  0.340938 -0.582505
  0N   2dyz      -0.073712  0.029150 -0.189209 -0.000024  0.390020  0.344939
  0N   2dx2y2     0.059920  0.260811 -0.137949 -0.000017 -0.226218  0.242469
  0N   2dxy       0.056751 -0.121464  0.057844 -0.000003  0.655787  0.303253
  0N   1f0        0.228541 -0.123031 -0.010800  0.576406 -0.117598 -0.028253
  0N   1f+1      -0.394165  0.131947  0.209522 -0.283734  0.086807  0.046956
  0N   1f-1      -0.026720 -0.185355 -0.850451 -0.478251 -0.094719 -0.415275
  0N   1f+2       0.396778  0.406760  0.216047 -0.658153  0.161002  0.138016
  0N   1f-2       0.690090 -0.373334  0.196455 -0.254083 -0.161083  0.041500
  0N   1f+3       0.288921 -0.273045 -0.159227  0.219785 -0.073816 -0.036388
  0N   1f-3      -0.339969 -0.736224  0.332265 -0.343063 -0.374187  0.173591
  1H   1s         0.002328 -0.165914  0.002981 -0.000000  0.108267  0.000252
  1H   2s         0.289585 -0.449262  0.008073 -0.000000  0.216491  0.000505
  1H   3s         0.012757  0.047513 -0.000854  0.000001 -0.043665 -0.000103
  1H   1pz       -0.116427 -0.178771 -0.082682  0.292501 -0.144362  0.159094
  1H   1px       -0.126247  0.182532 -0.003280  0.000001 -0.146552 -0.000343
  1H   1py       -0.225077 -0.341816  0.050573 -0.151304 -0.278174 -0.083115
  2H   1s         0.002287  0.080375 -0.145183 -0.000014 -0.054334  0.093662
  2H   2s         0.289473  0.217619 -0.393123 -0.000045 -0.108614  0.187271
  2H   3s         0.012775 -0.023021  0.041571 -0.000005  0.021898 -0.037770
  2H   1pz       -0.226163  0.025731 -0.161503 -0.189984  0.227464 -0.185780
  2H   1px        0.161540 -0.127647  0.067691 -0.268912  0.028097  0.243594
  2H   1py       -0.053775  0.181462 -0.333099 -0.008830  0.041343 -0.061634
  3H   1s         0.002283  0.085538  0.142202  0.000014 -0.053903 -0.093912
  3H   2s         0.289462  0.231603  0.385053  0.000045 -0.107752 -0.187769
  3H   3s         0.012776 -0.024499 -0.040717  0.000004  0.021725  0.037869
  3H   1pz        0.086783  0.139566  0.173651 -0.102567 -0.097425 -0.057487
  3H   1px        0.161538 -0.129991 -0.063059  0.268912  0.029221 -0.243458
  3H   1py       -0.215662  0.137420  0.319546  0.160160  0.208670  0.188204
                     42        43        44        45        46        47
                   5.04149   5.29392   5.29392   5.77692   5.77699   6.12799
                   0.00000   0.00000   0.00000   0.00000   0.00000   0.00000
                  --------  --------  --------  --------  --------  --------
  0N   1s        -0.001019 -0.000000 -0.000000 -0.000000 -0.000000  0.005934
  0N   2s        -0.001321 -0.000000 -0.000001 -0.000000 -0.000003  0.051636
  0N   3s        -0.157303  0.000003  0.000002  0.000004  0.000109 -1.751689
  0N   4s         0.766775 -0.000008  0.000021  0.000002 -0.000334  5.433383
  0N   5s        -0.701232  0.000000 -0.000009 -0.000002  0.000051 -0.910430
  0N   1pz        0.006862  0.029237 -0.000269 -0.346594  0.041305  0.073777
  0N   1px       -0.005274  0.004918 -0.030188 -0.019023  0.364623 -0.056752
  0N   1py        0.013264 -0.013167 -0.011879  0.171715  0.123761  0.142625
  0N   2pz       -0.122460  0.433630 -0.004009  2.650764 -0.315877 -0.688150
  0N   2px        0.094192  0.072955 -0.447703  0.145481 -2.788626  0.529390
  0N   2py       -0.236723 -0.195268 -0.176147 -1.313299 -0.946509 -1.330351
  0N   3pz        0.060511 -0.317500  0.002928 -0.106472  0.012685  0.049112
  0N   3px       -0.046581 -0.053413  0.327795 -0.005842  0.112005 -0.037791
  0N   3py        0.116978  0.142978  0.128967  0.052752  0.038015  0.094947
  0N   1dz2       0.258875 -0.814694  0.614578 -0.133457  0.039002  0.019896
  0N   1dxz       0.296151 -0.628877  0.009167  0.019910  0.061361  0.022762
  0N   1dyz      -0.744229 -0.526047 -0.356425 -0.108717  0.024529 -0.057193
  0N   1dx2y2     0.605335 -0.257264 -0.953028 -0.069307 -0.125997  0.046508
  0N   1dxy       0.572482  0.281886  0.261734 -0.017990  0.115680  0.044007
  0N   2dz2      -0.156941  0.428793 -0.370416 -1.133384  1.111194  0.157002
  0N   2dxz      -0.179534  0.401524  0.031778 -1.018195  0.095059  0.179546
  0N   2dyz       0.451210  0.263615  0.230596 -0.853452 -0.491767 -0.451137
  0N   2dx2y2    -0.367009  0.128347  0.517833 -0.546696 -1.422337  0.366798
  0N   2dxy      -0.347053 -0.194615 -0.096754  0.507802  0.312924  0.347096
  0N   1f0        0.027425 -0.080592  0.150204  0.315842 -0.740955 -0.701043
  0N   1f+1       0.114758 -0.092744 -0.096012  0.652102  0.370485 -0.837170
  0N   1f-1       0.014723 -0.135050  0.036201  0.173033 -0.188218 -0.144660
  0N   1f+2      -0.012290  0.099686  0.041568 -0.391464 -0.380661 -0.460046
  0N   1f-2      -0.105447 -0.094810 -0.013824  0.588758  0.239350  0.260548
  0N   1f+3       0.026251  0.098065 -0.086581 -0.553815  0.646688 -0.779574
  0N   1f-3       0.049135  0.071205  0.156300 -0.289778 -0.321649 -0.093645
  1H   1s        -0.015453  0.011035 -0.067739 -0.066543  1.275615 -0.815015
  1H   2s        -0.020718 -0.019886  0.122041 -0.100019  1.917348 -1.205116
  1H   3s         0.119374  0.032959 -0.202274  0.024008 -0.460237  0.282074
  1H   1pz        0.059211 -0.145186  0.007979  0.179506  0.029435 -0.047651
  1H   1px        0.174141  0.067153 -0.412126  0.068219 -1.307763  0.948543
  1H   1py        0.114461  0.062798  0.071389 -0.095414  0.033822 -0.092117
  2H   1s        -0.015470  0.053144  0.043437 -1.071390 -0.695371 -0.815165
  2H   2s        -0.020766 -0.095728 -0.078249 -1.610395 -1.045181 -1.205326
  2H   3s         0.119376  0.158698  0.129683  0.386562  0.250887  0.282123
  2H   1pz        0.171026  0.072450  0.178310  0.599214  0.248959  0.416223
  2H   1px       -0.118813 -0.165579  0.033286 -0.258370 -0.365816 -0.267324
  2H   1py       -0.059925 -0.291350 -0.232575 -0.891216 -0.584888 -0.816122
  3H   1s        -0.015473 -0.064180  0.024316  1.137930 -0.580108 -0.815149
  3H   2s        -0.020773  0.115622 -0.043815  1.710413 -0.871933 -1.205305
  3H   3s         0.119376 -0.191658  0.072597 -0.410569  0.209299  0.282116
  3H   1pz       -0.147731  0.358157 -0.188928  1.132434 -0.506130 -0.906580
  3H   1px       -0.118819  0.146450  0.084127  0.295042 -0.336946 -0.267325
  3H   1py        0.104965  0.100024  0.045242  0.039768 -0.131331 -0.131846
                     48
                  32.81337
                   0.00000
                  --------
  0N   1s        -1.387931
  0N   2s         1.692007
  0N   3s        -1.504633
  0N   4s         1.555134
  0N   5s        -1.141764
  0N   1pz        0.008935
  0N   1px       -0.006876
  0N   1py        0.017272
  0N   2pz       -0.019599
  0N   2px        0.015081
  0N   2py       -0.037884
  0N   3pz        0.056205
  0N   3px       -0.043255
  0N   3py        0.108654
  0N   1dz2      -0.000702
  0N   1dxz      -0.000802
  0N   1dyz       0.002016
  0N   1dx2y2    -0.001639
  0N   1dxy      -0.001551
  0N   2dz2       0.001468
  0N   2dxz       0.001678
  0N   2dyz      -0.004215
  0N   2dx2y2     0.003428
  0N   2dxy       0.003243
  0N   1f0       -0.008418
  0N   1f+1      -0.011155
  0N   1f-1      -0.001859
  0N   1f+2      -0.005117
  0N   1f-2       0.004408
  0N   1f+3      -0.009304
  0N   1f-3      -0.001736
  1H   1s        -0.032187
  1H   2s         0.007160
  1H   3s         0.196469
  1H   1pz       -0.002404
  1H   1px       -0.024169
  1H   1py       -0.004648
  2H   1s        -0.032187
  2H   2s         0.007158
  2H   3s         0.196471
  2H   1pz       -0.015641
  2H   1px        0.010523
  2H   1py        0.016008
  3H   1s        -0.032188
  3H   2s         0.007154
  3H   3s         0.196471
  3H   1pz        0.022100
  3H   1px        0.010523
  3H   1py       -0.003516

MULLIKEN ATOMIC CHARGES
-----------------------
   0 N :   -0.714997
   1 H :    0.238330
   2 H :    0.238333
   3 H :    0.238334
Sum of atomic charges:   -0.0000000

LOEWDIN ATOMIC CHARGES
----------------------
   0 N :   -0.398844
   1 H :    0.132948
   2 H :    0.132948
   3 H :    0.132949

  Mayer bond orders larger than 0.100000
B(  0-N ,  1-H ) :   0.9408 B(  0-N ,  2-H ) :   0.9408 B(  0-N ,  3-H ) :   0.9408

E(0)                                       ...    -56.217342011
E(0)                                       ...    -56.217342011
E(CORR)(strong-pairs)                      ...     -0.239806049
E(CORR)(weak-pairs)                        ...     -0.000084555
E(CORR)(corrected)                         ...     -0.239890604
E(TOT)                                     ...    -56.457232615
E(CCSD(T))                                 ...    -56.464039259
FINAL SINGLE POINT ENERGY       -56.462483656528

DIPOLE MOMENT
-------------
                                X             Y             Z
Electronic contribution:     -0.06703       0.16835       0.08709
Nuclear contribution   :      0.29822      -0.74911      -0.38751
                        -----------------------------------------
Total Dipole Moment    :      0.23119      -0.58076      -0.30042
                        -----------------------------------------
Magnitude (a.u.)       :      0.69353
Magnitude (Debye)      :      1.76282

Rotational constants in cm-1:     9.752901     9.752471     6.212525
Rotational constants in MHz : 292384.603910 292371.728197 186246.813378

                             ****ORCA TERMINATED NORMALLY****
TOTAL RUN TIME: 0 days 0 hours 0 minutes 7 seconds 466 msec
