                         Program Version 4.2.1 -  RELEASE  -
|  1> ! DLPNO-CCSD(T) gCP(HF/TZ) def2-TZVP def2-TZVP/C TightSCF Grid5 NoFinalGrid GridX6 NoFinalGridX PrintBasis PrintMOs NBO
|  2>
|  3> %pal
|  4>  nprocs 8
|  5> end
|  6>
|  7> *xyzfile 0 1 init.xyz
|  8>
|  9>                          ****END OF INPUT****

CARTESIAN COORDINATES (ANGSTROEM)
---------------------------------
  N      0.000001   -0.000000    0.000000
  H      1.005050    0.000000   -0.000000
  H     -0.502525    0.870399   -0.000000
  H     -0.502525   -0.870399   -0.000000

 Total Charge           Charge          ....    0
 Multiplicity           Mult            ....    1
 Number of Electrons    NEL             ....   10
 Basis Dimension        Dim             ....   49

ORBITAL ENERGIES
----------------

  NO   OCC          E(Eh)            E(eV)
   0   2.0000     -15.521937      -422.3734
   1   2.0000      -1.118713       -30.4417
   2   2.0000      -0.645156       -17.5556
   3   2.0000      -0.645155       -17.5556
   4   2.0000      -0.388605       -10.5745
   5   0.0000       0.133912         3.6439
   6   0.0000       0.212472         5.7817
   7   0.0000       0.212472         5.7817
   8   0.0000       0.453285        12.3345
   9   0.0000       0.453285        12.3345

------------------
MOLECULAR ORBITALS
------------------
                      0         1         2         3         4         5
                 -15.52194  -1.11871  -0.64516  -0.64515  -0.38861   0.13391
                   2.00000   2.00000   2.00000   2.00000   2.00000   0.00000
                  --------  --------  --------  --------  --------  --------
  0N   1s        -0.448886  0.093593 -0.000000 -0.000000 -0.000000  0.036156
  0N   2s        -0.630127  0.218522 -0.000000 -0.000000 -0.000000  0.093397
  0N   3s        -0.020367 -0.316370  0.000000  0.000000  0.000000 -0.283046
  0N   4s         0.007034 -0.412094  0.000001  0.000000  0.000000  0.450528
  0N   5s        -0.004897 -0.130835  0.000000  0.000000  0.000000 -2.492138
  0N   1pz        0.000000  0.000000  0.000000  0.000000  0.417938  0.000000
  0N   1px        0.000000 -0.000000 -0.331376  0.000071 -0.000000  0.000001
  0N   1py       -0.000000 -0.000000 -0.000071 -0.331376 -0.000000 -0.000000
  0N   2pz       -0.000000  0.000000  0.000000  0.000000  0.390267 -0.000000
  0N   2px       -0.000000 -0.000000 -0.277570  0.000060 -0.000000  0.000001
  0N   2py       -0.000000 -0.000000 -0.000060 -0.277570  0.000000  0.000000
  0N   3pz        0.000000  0.000000 -0.000000  0.000000  0.376194  0.000000
  0N   3px        0.000000 -0.000000 -0.127500  0.000027 -0.000000  0.000002
  0N   3py       -0.000000 -0.000000 -0.000027 -0.127500 -0.000000 -0.000000
  0N   1dz2       0.000086  0.007829  0.000000  0.000000 -0.000000 -0.004162
  0N   1dxz       0.000000 -0.000000  0.000000 -0.000000  0.000000  0.000000
  0N   1dyz       0.000000  0.000000  0.000000  0.000000  0.000000 -0.000000
  0N   1dx2y2    -0.000000 -0.000000 -0.013397  0.000003  0.000000  0.000000
  0N   1dxy      -0.000000 -0.000000  0.000003  0.013397 -0.000000  0.000000
  0N   2dz2       0.000129  0.011458 -0.000000  0.000000 -0.000000 -0.034304
  0N   2dxz       0.000000  0.000000  0.000000 -0.000000 -0.000000  0.000000
  0N   2dyz       0.000000  0.000000  0.000000  0.000000  0.000000  0.000000
  0N   2dx2y2    -0.000000 -0.000000 -0.010115  0.000002 -0.000000  0.000000
  0N   2dxy       0.000000 -0.000000  0.000002  0.010115 -0.000000  0.000000
  0N   1f0       -0.000000 -0.000000  0.000000  0.000000 -0.008609  0.000000
  0N   1f+1       0.000000  0.000000  0.006288 -0.000001  0.000000 -0.000000
  0N   1f-1       0.000000  0.000000  0.000001  0.006288  0.000000 -0.000000
  0N   1f+2      -0.000000 -0.000000  0.000000  0.000000  0.000000  0.000000
  0N   1f-2       0.000000  0.000000 -0.000000 -0.000000  0.000000 -0.000000
  0N   1f+3       0.000368  0.007253  0.000000 -0.000000 -0.000000 -0.011365
  0N   1f-3      -0.000000  0.000000  0.000000  0.000000 -0.000000  0.000000
  1H   1s        -0.000043 -0.085400 -0.170085  0.000037 -0.000000  0.021137
  1H   2s         0.000080 -0.080385 -0.233445  0.000050 -0.000000 -0.097646
  1H   3s         0.000782 -0.005105 -0.062191  0.000013 -0.000000  1.148028
  1H   1pz        0.000000 -0.000000 -0.000000  0.000000  0.022757 -0.000000
  1H   1px       -0.000288  0.015922  0.026265 -0.000006  0.000000  0.045837
  1H   1py       -0.000000  0.000000 -0.000002 -0.010418 -0.000000  0.000000
  2H   1s        -0.000043 -0.085400  0.085011 -0.147316 -0.000000  0.021137
  2H   2s         0.000080 -0.080385  0.116679 -0.202195 -0.000000 -0.097645
  2H   3s         0.000782 -0.005105  0.031084 -0.053866 -0.000000  1.148028
  2H   1pz        0.000000 -0.000000  0.000000 -0.000000  0.022757 -0.000000
  2H   1px        0.000144 -0.007961 -0.001250 -0.015884 -0.000000 -0.022918
  2H   1py       -0.000250  0.013789 -0.015880  0.017097  0.000000  0.039696
  3H   1s        -0.000043 -0.085400  0.085074  0.147280 -0.000000  0.021137
  3H   2s         0.000080 -0.080385  0.116766  0.202144 -0.000000 -0.097645
  3H   3s         0.000782 -0.005105  0.031107  0.053853 -0.000000  1.148028
  3H   1pz        0.000000 -0.000000  0.000000  0.000000  0.022757 -0.000000
  3H   1px        0.000144 -0.007961 -0.001244  0.015884 -0.000000 -0.022918
  3H   1py        0.000250 -0.013789  0.015888  0.017091 -0.000000 -0.039696
                      6         7         8         9        10        11
                   0.21247   0.21247   0.45328   0.45329   0.51870   0.56038
                   0.00000   0.00000   0.00000   0.00000   0.00000   0.00000
                  --------  --------  --------  --------  --------  --------
  0N   1s        -0.000000 -0.000000 -0.000000 -0.000000  0.000000 -0.019210
  0N   2s        -0.000000 -0.000000 -0.000000 -0.000000  0.000000 -0.049499
  0N   3s         0.000000  0.000001 -0.000000  0.000000  0.000000  0.007238
  0N   4s        -0.000000 -0.000004  0.000000 -0.000003 -0.000000  0.239251
  0N   5s         0.000000  0.000007  0.000000 -0.000012 -0.000000  2.753856
  0N   1pz        0.000000  0.000000 -0.000000 -0.000000 -0.269653 -0.000000
  0N   1px        0.000702  0.186235 -0.000005  0.008035  0.000000 -0.000001
  0N   1py        0.186235 -0.000702  0.008035  0.000005  0.000000 -0.000000
  0N   2pz        0.000000  0.000000  0.000000  0.000000 -0.831068 -0.000000
  0N   2px       -0.000497 -0.131965  0.000165 -0.289814  0.000000  0.000001
  0N   2py       -0.131962  0.000497 -0.289811 -0.000165  0.000000  0.000000
  0N   3pz        0.000000  0.000000 -0.000000 -0.000000  1.284199  0.000000
  0N   3px        0.004159  1.103148  0.001262 -2.222803 -0.000000  0.000001
  0N   3py        1.103146 -0.004159 -2.222791 -0.001262 -0.000000  0.000000
  0N   1dz2       0.000000  0.000000  0.000000  0.000000 -0.000000  0.026786
  0N   1dxz       0.000000  0.000000  0.000000 -0.000000 -0.000000 -0.000000
  0N   1dyz       0.000000 -0.000000 -0.000000 -0.000000 -0.000000 -0.000000
  0N   1dx2y2    -0.000010 -0.002619 -0.000021  0.037025  0.000000  0.000000
  0N   1dxy       0.002619 -0.000010 -0.037025 -0.000021 -0.000000  0.000000
  0N   2dz2       0.000000  0.000000 -0.000000  0.000001  0.000000 -0.111005
  0N   2dxz       0.000000  0.000000 -0.000000  0.000000 -0.000000  0.000000
  0N   2dyz       0.000000 -0.000000  0.000000  0.000000  0.000000 -0.000000
  0N   2dx2y2    -0.000371 -0.098425  0.000154 -0.271783 -0.000000  0.000001
  0N   2dxy       0.098425 -0.000371  0.271783  0.000154  0.000000 -0.000000
  0N   1f0       -0.000000  0.000000  0.000000  0.000000  0.003165  0.000000
  0N   1f+1       0.000034  0.009013 -0.000018  0.032561  0.000000 -0.000000
  0N   1f-1       0.009013 -0.000034  0.032560  0.000018 -0.000000 -0.000000
  0N   1f+2       0.000000  0.000000 -0.000000  0.000000 -0.000000  0.000000
  0N   1f-2      -0.000000  0.000000 -0.000000 -0.000000 -0.000000  0.000000
  0N   1f+3       0.000000  0.000000 -0.000000  0.000000  0.000000 -0.040779
  0N   1f-3       0.000000 -0.000000  0.000000  0.000000  0.000000  0.000000
  1H   1s         0.000002  0.000508 -0.000043  0.075838  0.000000 -0.067770
  1H   2s         0.001360  0.360772 -0.000958  1.687246  0.000000 -1.323738
  1H   3s        -0.009152 -2.427783 -0.000349  0.614305 -0.000000 -0.092093
  1H   1pz        0.000000  0.000000 -0.000000  0.000000 -0.011428 -0.000000
  1H   1px       -0.000341 -0.090471  0.000090 -0.159117 -0.000000  0.077971
  1H   1py       -0.004480  0.000017 -0.060256 -0.000034 -0.000000  0.000000
  2H   1s         0.000438 -0.000255  0.065699 -0.037881  0.000000 -0.067770
  2H   2s         0.311755 -0.181562  1.461670 -0.842789  0.000000 -1.323738
  2H   3s        -2.097940  1.221813  0.532165 -0.306847 -0.000000 -0.092086
  2H   1pz        0.000000 -0.000000  0.000000 -0.000000 -0.011428 -0.000000
  2H   1px        0.037137 -0.026118  0.042856 -0.084946  0.000000 -0.038985
  2H   1py       -0.068832  0.037495 -0.134425  0.042731 -0.000000  0.067524
  3H   1s        -0.000440 -0.000252 -0.065656 -0.037956  0.000000 -0.067770
  3H   2s        -0.313115 -0.179206 -1.460712 -0.844448  0.000000 -1.323738
  3H   3s         2.107092  1.205961 -0.531816 -0.307451 -0.000000 -0.092086
  3H   1pz       -0.000000 -0.000000 -0.000000 -0.000000 -0.011428 -0.000000
  3H   1px       -0.037333 -0.025837 -0.042760 -0.084995  0.000000 -0.038985
  3H   1py       -0.069113 -0.036975 -0.134376 -0.042884  0.000000 -0.067524
                     12        13        14        15        16        17
                   0.63698   0.73801   0.73801   1.17055   1.17055   1.42804
                   0.00000   0.00000   0.00000   0.00000   0.00000   0.00000
                  --------  --------  --------  --------  --------  --------
  0N   1s         0.065930  0.000000  0.000000  0.000000 -0.000000  0.000000
  0N   2s         0.133363  0.000000  0.000001  0.000000  0.000000  0.000000
  0N   3s         0.295868 -0.000000  0.000002 -0.000000 -0.000000 -0.000006
  0N   4s        -3.436922 -0.000000 -0.000019  0.000000  0.000000  0.000028
  0N   5s         5.655568 -0.000000  0.000017 -0.000000 -0.000000  0.000014
  0N   1pz        0.000000 -0.000000 -0.000000  0.000000 -0.000000 -0.000000
  0N   1px        0.000001  0.000031 -0.326876  0.000000 -0.000000 -0.008384
  0N   1py        0.000000 -0.326876 -0.000031  0.000000  0.000000  0.000001
  0N   2pz        0.000000 -0.000000 -0.000000 -0.000000  0.000000  0.000000
  0N   2px        0.000002  0.000129 -1.344864  0.000000 -0.000000  1.353271
  0N   2py        0.000000 -1.344858 -0.000129  0.000000  0.000000 -0.000095
  0N   3pz       -0.000000  0.000000  0.000000  0.000000 -0.000000  0.000000
  0N   3px       -0.000008 -0.000169  1.763135  0.000000 -0.000000  1.346714
  0N   3py        0.000000  1.763137  0.000169  0.000000  0.000000 -0.000094
  0N   1dz2       0.008714 -0.000000  0.000000 -0.000000 -0.000000 -0.000000
  0N   1dxz      -0.000000 -0.000000  0.000000 -0.015416  0.000107  0.000000
  0N   1dyz      -0.000000  0.000000  0.000000 -0.000107 -0.015416 -0.000000
  0N   1dx2y2    -0.000000 -0.000001  0.007249 -0.000000  0.000000 -0.012224
  0N   1dxy       0.000000 -0.007249 -0.000001  0.000000  0.000000 -0.000001
  0N   2dz2       0.043928 -0.000000  0.000001  0.000000  0.000000 -0.000011
  0N   2dxz       0.000000 -0.000000  0.000000  0.825218 -0.005703 -0.000000
  0N   2dyz       0.000000  0.000000  0.000000  0.005703  0.825218  0.000000
  0N   2dx2y2    -0.000001  0.000008 -0.086422  0.000000 -0.000000  1.647851
  0N   2dxy      -0.000000  0.086420  0.000008 -0.000000 -0.000000  0.000116
  0N   1f0       -0.000000  0.000000  0.000000  0.000000 -0.000000 -0.000000
  0N   1f+1       0.000000 -0.000002  0.024063 -0.000000  0.000000 -0.081905
  0N   1f-1       0.000000  0.024063  0.000002 -0.000000 -0.000000  0.000006
  0N   1f+2      -0.000000 -0.000000  0.000000 -0.009489  0.000066 -0.000000
  0N   1f-2      -0.000000 -0.000000 -0.000000  0.000066  0.009489 -0.000000
  0N   1f+3       0.027665  0.000000  0.000000 -0.000000  0.000000 -0.000001
  0N   1f-3       0.000000  0.000000  0.000000 -0.000000  0.000000 -0.000000
  1H   1s         0.053231 -0.000008  0.079124  0.000000 -0.000000  0.155729
  1H   2s         0.347377 -0.000108  1.128627 -0.000000  0.000000 -2.784983
  1H   3s        -1.388784  0.000199 -2.077437 -0.000000  0.000000  0.136685
  1H   1pz        0.000000 -0.000000  0.000000  0.210692 -0.001456 -0.000000
  1H   1px       -0.049942  0.000009 -0.089431  0.000000 -0.000000  0.460014
  1H   1py       -0.000000 -0.046058 -0.000004 -0.000000 -0.000000  0.000008
  2H   1s         0.053231  0.068527 -0.039555 -0.000000  0.000000 -0.077873
  2H   2s         0.347375  0.977461 -0.564211  0.000000 -0.000000  1.392634
  2H   3s        -1.388789 -1.799206  1.038539  0.000000 -0.000000 -0.068350
  2H   1pz        0.000000  0.000000 -0.000000 -0.104086  0.183193  0.000000
  2H   1px        0.024971  0.018786 -0.056899 -0.000000 -0.000000  0.034790
  2H   1py       -0.043250 -0.078588  0.018772 -0.000000  0.000000 -0.245529
  3H   1s         0.053231 -0.068519 -0.039568 -0.000000 -0.000000 -0.077854
  3H   2s         0.347375 -0.977353 -0.564398  0.000000  0.000000  1.392296
  3H   3s        -1.388789  1.799007  1.038883  0.000000  0.000000 -0.068333
  3H   1pz        0.000000 -0.000000 -0.000000 -0.106608 -0.181737  0.000000
  3H   1px        0.024971 -0.018775 -0.056902 -0.000000  0.000000  0.034756
  3H   1py        0.043250 -0.078584 -0.018787  0.000000  0.000000  0.245485
                     18        19        20        21        22        23
                   1.42804   1.47783   1.79557   2.04925   2.08718   2.08718
                   0.00000   0.00000   0.00000   0.00000   0.00000   0.00000
                  --------  --------  --------  --------  --------  --------
  0N   1s         0.000000 -0.006185 -0.000000 -0.000000  0.000001 -0.000000
  0N   2s         0.000000 -0.025368 -0.000000 -0.000000  0.000002 -0.000000
  0N   3s        -0.000000  0.520657  0.000000  0.000000 -0.000020  0.000000
  0N   4s         0.000000 -1.680591 -0.000000 -0.000000  0.000065 -0.000000
  0N   5s         0.000000 -1.914877 -0.000000  0.000000 -0.000024  0.000000
  0N   1pz        0.000000  0.000000  0.000000 -0.484121 -0.000000  0.000000
  0N   1px        0.000001  0.000000 -0.000000  0.000000 -0.599990  0.000064
  0N   1py        0.008384  0.000000  0.000001 -0.000000 -0.000064 -0.599991
  0N   2pz        0.000000  0.000000 -0.000000  0.155739  0.000000 -0.000000
  0N   2px       -0.000095  0.000002  0.000000 -0.000000  2.276532 -0.000241
  0N   2py       -1.353263 -0.000000 -0.000001  0.000000  0.000241  2.276520
  0N   3pz        0.000000  0.000000  0.000000 -0.459978 -0.000000  0.000000
  0N   3px       -0.000094  0.000010  0.000000  0.000000 -0.729305  0.000077
  0N   3py       -1.346706 -0.000000  0.000004 -0.000000 -0.000077 -0.729303
  0N   1dz2       0.000000 -0.018233  0.000000  0.000000 -0.000001  0.000000
  0N   1dxz      -0.000000  0.000000 -0.000000 -0.000000  0.000000 -0.000000
  0N   1dyz      -0.000000  0.000000  0.000000 -0.000000  0.000000  0.000000
  0N   1dx2y2     0.000001 -0.000000  0.000000 -0.000000  0.011464 -0.000001
  0N   1dxy      -0.012224 -0.000000 -0.000000 -0.000000 -0.000001 -0.011463
  0N   2dz2      -0.000000  1.500614  0.000000  0.000000 -0.000002  0.000000
  0N   2dxz       0.000000 -0.000000  0.000000  0.000003 -0.000000  0.000000
  0N   2dyz       0.000000 -0.000000 -0.000000  0.000000 -0.000000 -0.000000
  0N   2dx2y2    -0.000116  0.000007  0.000000 -0.000000  0.986844 -0.000104
  0N   2dxy       1.647852  0.000000 -0.000002 -0.000000 -0.000104 -0.986845
  0N   1f0       -0.000000 -0.000000 -0.000000 -0.000674 -0.000000 -0.000000
  0N   1f+1       0.000006 -0.000000 -0.000000  0.000000 -0.153979  0.000016
  0N   1f-1       0.081904  0.000000  0.000000 -0.000000 -0.000016 -0.153979
  0N   1f+2       0.000000 -0.000000  0.000000 -0.000000 -0.000000  0.000000
  0N   1f-2      -0.000000 -0.000000 -0.000000  0.000000  0.000000  0.000000
  0N   1f+3      -0.000000  0.118294  0.000000  0.000000 -0.000003  0.000000
  0N   1f-3       0.000000  0.000000  0.047634  0.000000 -0.000000 -0.000000
  1H   1s        -0.000011 -0.094064  0.000000 -0.000000  0.476977 -0.000050
  1H   2s         0.000195  1.652291 -0.000000  0.000000 -2.408508  0.000255
  1H   3s        -0.000010  0.001084  0.000000 -0.000000  1.230531 -0.000130
  1H   1pz        0.000000 -0.000000 -0.000000  0.611060  0.000000 -0.000000
  1H   1px       -0.000032 -0.263475  0.000000 -0.000000  0.906111 -0.000096
  1H   1py        0.106970 -0.000000  0.614506  0.000000  0.000064  0.601513
  2H   1s        -0.134860 -0.094067  0.000000 -0.000000 -0.238439  0.413099
  2H   2s         2.411746  1.652307 -0.000002  0.000000  1.204003 -2.085934
  2H   3s        -0.118373  0.001085 -0.000001 -0.000000 -0.615141  1.065728
  2H   1pz        0.000000 -0.000000 -0.000000  0.611063 -0.000000  0.000000
  2H   1px        0.245507  0.131737 -0.532179  0.000000  0.677641 -0.131964
  2H   1py       -0.318247 -0.228177 -0.307254 -0.000000 -0.131798  0.829967
  3H   1s         0.134871 -0.094067 -0.000000 -0.000000 -0.238527 -0.413048
  3H   2s        -2.411941  1.652307  0.000002  0.000000  1.204444  2.085679
  3H   3s         0.118382  0.001085  0.000001 -0.000000 -0.615367 -1.065598
  3H   1pz       -0.000000 -0.000000  0.000000  0.611063 -0.000000 -0.000000
  3H   1px       -0.245512  0.131737  0.532179  0.000000  0.677669  0.131821
  3H   1py       -0.318281  0.228177 -0.307254  0.000000  0.131974  0.829939
                     24        25        26        27        28        29
                   2.18689   2.27503   2.27504   2.53334   2.62836   2.73023
                   0.00000   0.00000   0.00000   0.00000   0.00000   0.00000
                  --------  --------  --------  --------  --------  --------
  0N   1s        -0.076981  0.000000  0.000000  0.000000  0.101102 -0.000000
  0N   2s        -0.259166  0.000000  0.000000  0.000000  0.372646 -0.000000
  0N   3s         2.297981 -0.000000 -0.000000 -0.000000 -2.721049  0.000000
  0N   4s        -5.664762  0.000000  0.000000  0.000000  3.879391 -0.000000
  0N   5s         2.245599 -0.000000 -0.000000 -0.000000 -3.432818  0.000000
  0N   1pz        0.000000  0.000000 -0.000002 -1.179287  0.000000 -0.000000
  0N   1px       -0.000007  0.000000  0.000000  0.000000 -0.000006 -0.002796
  0N   1py        0.000000 -0.000000  0.000000  0.000000  0.000000  1.046051
  0N   2pz        0.000000 -0.000000 -0.000002  1.753171 -0.000000  0.000000
  0N   2px        0.000018 -0.000000 -0.000000 -0.000000  0.000021  0.004808
  0N   2py       -0.000000  0.000000 -0.000000  0.000000 -0.000000 -1.798509
  0N   3pz        0.000000  0.000000 -0.000001 -0.556058  0.000000 -0.000000
  0N   3px       -0.000005  0.000000  0.000000  0.000000 -0.000003 -0.001963
  0N   3py        0.000000 -0.000000  0.000000  0.000000  0.000000  0.734421
  0N   1dz2       0.046495 -0.000000  0.000000  0.000000  0.069492 -0.000000
  0N   1dxz      -0.000000  0.000011  0.037258 -0.000000 -0.000000  0.000000
  0N   1dyz       0.000000 -0.037258  0.000011 -0.000000 -0.000000 -0.000000
  0N   1dx2y2    -0.000000 -0.000000 -0.000000 -0.000000 -0.000000  0.000041
  0N   1dxy       0.000000 -0.000000  0.000000 -0.000000  0.000000  0.015170
  0N   2dz2       0.210076 -0.000000 -0.000000 -0.000000 -0.143127 -0.000000
  0N   2dxz      -0.000000 -0.000307 -1.015605  0.000001 -0.000000 -0.000000
  0N   2dyz       0.000000  1.015602 -0.000307  0.000000  0.000000  0.000000
  0N   2dx2y2     0.000008 -0.000000 -0.000000  0.000000 -0.000002 -0.001730
  0N   2dxy      -0.000000 -0.000000  0.000000 -0.000000 -0.000000 -0.647182
  0N   1f0       -0.000000  0.000000  0.000000  0.033559 -0.000000  0.000000
  0N   1f+1      -0.000002  0.000000  0.000000 -0.000000 -0.000001  0.000091
  0N   1f-1       0.000000 -0.000000  0.000000 -0.000000  0.000000 -0.033906
  0N   1f+2      -0.000000  0.000011  0.035871  0.000000 -0.000000  0.000000
  0N   1f-2       0.000000  0.035871 -0.000011  0.000000  0.000000  0.000000
  0N   1f+3       0.290377 -0.000000 -0.000000  0.000000  0.202582 -0.000000
  0N   1f-3       0.000000  0.000000 -0.000000  0.000000 -0.000000  0.000000
  1H   1s        -0.501228 -0.000000 -0.000000 -0.000000 -0.465620  0.000172
  1H   2s         1.768490  0.000000  0.000000  0.000000  0.468604 -0.001017
  1H   3s        -0.747814 -0.000000 -0.000000  0.000000  0.475682  0.001650
  1H   1pz       -0.000000  0.000313  1.033954 -0.329171  0.000000  0.000000
  1H   1px       -0.588891 -0.000000 -0.000000 -0.000000 -0.150321 -0.000116
  1H   1py        0.000000  0.000000 -0.000000 -0.000000  0.000000  0.801403
  2H   1s        -0.501241  0.000000  0.000000 -0.000000 -0.465623 -0.055778
  2H   2s         1.768523 -0.000000 -0.000000  0.000000  0.468626  0.329824
  2H   3s        -0.747831  0.000000  0.000000  0.000000  0.475670 -0.535277
  2H   1pz       -0.000000 -0.895583 -0.516703 -0.329170  0.000000 -0.000000
  2H   1px        0.294454 -0.000000 -0.000000  0.000000  0.075158  0.326504
  2H   1py       -0.509999  0.000000  0.000000 -0.000000 -0.130190  0.232168
  3H   1s        -0.501241 -0.000000  0.000000 -0.000000 -0.465623  0.055606
  3H   2s         1.768523  0.000000 -0.000000  0.000000  0.468626 -0.328808
  3H   3s        -0.747831 -0.000000  0.000000  0.000000  0.475670  0.533627
  3H   1pz       -0.000000  0.895271 -0.517245 -0.329170  0.000000  0.000000
  3H   1px        0.294454  0.000000 -0.000000  0.000000  0.075158 -0.329776
  3H   1py        0.509999  0.000000 -0.000000  0.000000  0.130190  0.233922
                     30        31        32        33        34        35
                   2.73023   2.90681   2.90682   3.23170   3.59259   3.59259
                   0.00000   0.00000   0.00000   0.00000   0.00000   0.00000
                  --------  --------  --------  --------  --------  --------
  0N   1s        -0.000001  0.000000 -0.000000 -0.036783 -0.000000  0.000000
  0N   2s        -0.000003  0.000000 -0.000002 -0.091892 -0.000000  0.000001
  0N   3s         0.000014 -0.000000  0.000018 -0.915641  0.000000  0.000001
  0N   4s         0.000004 -0.000000 -0.000027  5.632945 -0.000000 -0.000032
  0N   5s         0.000021 -0.000000  0.000010 -0.065169  0.000000 -0.000000
  0N   1pz       -0.000000  0.000000  0.000000 -0.000000  0.000000  0.000000
  0N   1px       -1.046046 -0.000097  0.464343  0.000011 -0.000092  0.322388
  0N   1py       -0.002796  0.464326  0.000097 -0.000000 -0.322394 -0.000092
  0N   2pz        0.000000 -0.000000  0.000000 -0.000000 -0.000000 -0.000000
  0N   2px        1.798536 -0.000379  1.810019 -0.000017  0.000788 -2.753595
  0N   2py        0.004808  1.810046  0.000379  0.000000  2.753588  0.000788
  0N   3pz       -0.000000  0.000000  0.000000 -0.000000  0.000000  0.000000
  0N   3px       -0.734412 -0.000122  0.581046  0.000006 -0.000070  0.243395
  0N   3py       -0.001963  0.581033  0.000122  0.000000 -0.243395 -0.000070
  0N   1dz2      -0.000000 -0.000000 -0.000001  0.137080  0.000000 -0.000001
  0N   1dxz       0.000000 -0.000000  0.000000 -0.000000  0.000000 -0.000000
  0N   1dyz       0.000000  0.000000  0.000000  0.000000  0.000000  0.000000
  0N   1dx2y2     0.015169  0.000010 -0.045950  0.000001 -0.000045  0.157749
  0N   1dxy      -0.000041  0.045951  0.000010  0.000000  0.157749  0.000045
  0N   2dz2      -0.000005  0.000000  0.000006 -1.321054  0.000000  0.000008
  0N   2dxz      -0.000000  0.000000 -0.000000  0.000000 -0.000000  0.000000
  0N   2dyz      -0.000000 -0.000000 -0.000000 -0.000000 -0.000000 -0.000000
  0N   2dx2y2    -0.647174 -0.000060  0.285465 -0.000002  0.000541 -1.889435
  0N   2dxy       0.001730 -0.285465 -0.000060  0.000000 -1.889438 -0.000541
  0N   1f0        0.000000 -0.000000 -0.000000  0.000000 -0.000000 -0.000000
  0N   1f+1       0.033904  0.000036 -0.173621 -0.000002  0.000112 -0.392109
  0N   1f-1       0.000091 -0.173620 -0.000036 -0.000000  0.392110  0.000112
  0N   1f+2       0.000000  0.000000 -0.000000  0.000000  0.000000 -0.000000
  0N   1f-2      -0.000000  0.000000  0.000000 -0.000000 -0.000000 -0.000000
  0N   1f+3      -0.000003  0.000000 -0.000000 -0.144800 -0.000000 -0.000000
  0N   1f-3      -0.000000 -0.000001 -0.000000  0.000000  0.000000 -0.000000
  1H   1s         0.064308 -0.000043  0.204993 -0.309513 -0.000283  0.988935
  1H   2s        -0.380307  0.000465 -2.221659 -2.033524 -0.000498  1.739995
  1H   3s         0.617133 -0.000026  0.125988  0.247241  0.000128 -0.446244
  1H   1pz        0.000000  0.000000 -0.000000 -0.000000 -0.000000  0.000000
  1H   1px       -0.043564 -0.000299  1.428358  1.398456  0.000336 -1.174743
  1H   1py       -0.002142 -0.587989 -0.000123 -0.000000  0.455002  0.000130
  2H   1s        -0.032002  0.177552 -0.102458 -0.309516 -0.856296 -0.494706
  2H   2s         0.189253 -1.924254  1.110434 -2.033525 -1.506615 -0.870411
  2H   3s        -0.307140  0.109133 -0.062975  0.247247  0.386392  0.223231
  2H   1pz       -0.000000 -0.000000  0.000000 -0.000000 -0.000000 -0.000000
  2H   1px       -0.612831 -0.873087 -0.084075 -0.699229 -0.311475 -0.635021
  2H   1py       -0.328769  0.924456 -0.872910  1.211100  0.994712  0.311934
  3H   1s        -0.032300 -0.177509 -0.102533 -0.309516  0.856579 -0.494216
  3H   2s         0.191013  1.923789  1.111239 -2.033525  1.507113 -0.869549
  3H   3s        -0.309998 -0.109107 -0.063020  0.247247 -0.386520  0.223009
  3H   1pz       -0.000000  0.000000  0.000000 -0.000000  0.000000 -0.000000
  3H   1px       -0.611076  0.873122 -0.083710 -0.699229  0.311838 -0.634842
  3H   1py        0.327523  0.924091  0.873297 -1.211100  0.994890 -0.311365
                     36        37        38        39        40        41
                   4.62834   4.62834   4.72342   5.00843   5.00843   5.02776
                   0.00000   0.00000   0.00000   0.00000   0.00000   0.00000
                  --------  --------  --------  --------  --------  --------
  0N   1s        -0.000000 -0.000000 -0.000000  0.000000  0.000000 -0.000000
  0N   2s        -0.000000 -0.000000 -0.000000 -0.000000 -0.000000 -0.000000
  0N   3s         0.000000 -0.000000  0.000000  0.000000  0.000000  0.000000
  0N   4s        -0.000000  0.000000 -0.000000 -0.000000 -0.000000  0.000000
  0N   5s         0.000000 -0.000000  0.000000  0.000000  0.000000 -0.000000
  0N   1pz       -0.000000 -0.000002  0.118434  0.000000 -0.000000 -0.000000
  0N   1px        0.000000  0.000000 -0.000000  0.000000 -0.000000  0.000000
  0N   1py        0.000000 -0.000000  0.000000  0.000000  0.000000  0.000001
  0N   2pz        0.000000  0.000004 -0.367341 -0.000001  0.000000  0.000000
  0N   2px       -0.000000 -0.000000  0.000000  0.000000 -0.000000 -0.000000
  0N   2py       -0.000000  0.000000 -0.000000  0.000000  0.000000 -0.000010
  0N   3pz        0.000000  0.000001 -0.049919  0.000000 -0.000000  0.000000
  0N   3px       -0.000000 -0.000000 -0.000000 -0.000000  0.000000 -0.000000
  0N   3py       -0.000000  0.000000 -0.000000 -0.000000 -0.000000 -0.000000
  0N   1dz2      -0.000000 -0.000000  0.000000  0.000000  0.000000 -0.000000
  0N   1dxz      -0.000452 -0.465799 -0.000009  1.089140 -0.000250  0.000000
  0N   1dyz      -0.465798  0.000452  0.000000  0.000250  1.089141 -0.000000
  0N   1dx2y2     0.000000  0.000000 -0.000000  0.000000 -0.000000  0.000000
  0N   1dxy      -0.000000  0.000000 -0.000000 -0.000000 -0.000000  0.000001
  0N   2dz2       0.000000 -0.000000  0.000000 -0.000000 -0.000000  0.000000
  0N   2dxz      -0.000099 -0.102092 -0.000002 -0.823007  0.000189 -0.000000
  0N   2dyz      -0.102091  0.000099 -0.000000 -0.000189 -0.823006  0.000000
  0N   2dx2y2     0.000000  0.000000  0.000000 -0.000000  0.000000 -0.000000
  0N   2dxy      -0.000000  0.000000  0.000000  0.000000  0.000000  0.000009
  0N   1f0       -0.000000 -0.000018  1.101201  0.000002 -0.000000 -0.000000
  0N   1f+1       0.000000  0.000000 -0.000000  0.000000 -0.000000  0.000000
  0N   1f-1       0.000000 -0.000000  0.000000  0.000000  0.000000  0.000004
  0N   1f+2      -0.000952 -0.980508 -0.000017 -0.497939  0.000114 -0.000000
  0N   1f-2       0.980508 -0.000952 -0.000000  0.000114  0.497939 -0.000000
  0N   1f+3       0.000000 -0.000000  0.000000 -0.000000  0.000000  0.000000
  0N   1f-3       0.000000  0.000000 -0.000000  0.000000 -0.000000 -1.214070
  1H   1s        -0.000000 -0.000000  0.000000 -0.000000  0.000000  0.000000
  1H   2s         0.000000  0.000000 -0.000000 -0.000000  0.000000  0.000000
  1H   3s         0.000000  0.000000 -0.000000  0.000000 -0.000000 -0.000000
  1H   1pz        0.000404  0.415620  0.334327  0.344815 -0.000079  0.000000
  1H   1px        0.000000  0.000000  0.000000  0.000000 -0.000000 -0.000000
  1H   1py        0.000000 -0.000000 -0.000000  0.000000 -0.000000 -0.389419
  2H   1s        -0.000000  0.000000  0.000000  0.000000 -0.000000  0.000003
  2H   2s         0.000000 -0.000000 -0.000000  0.000000 -0.000000  0.000007
  2H   3s         0.000000 -0.000000 -0.000000 -0.000000  0.000000 -0.000002
  2H   1pz        0.359738 -0.208166  0.334315 -0.172338  0.298656 -0.000000
  2H   1px        0.000000  0.000000 -0.000000 -0.000000 -0.000000  0.337245
  2H   1py        0.000000  0.000000  0.000000 -0.000000  0.000000  0.194704
  3H   1s         0.000000  0.000000  0.000000  0.000000  0.000000 -0.000003
  3H   2s        -0.000000 -0.000000 -0.000000  0.000000  0.000000 -0.000007
  3H   3s        -0.000000 -0.000000 -0.000000 -0.000000 -0.000000  0.000002
  3H   1pz       -0.360142 -0.207467  0.334315 -0.172475 -0.298577 -0.000000
  3H   1px       -0.000000  0.000000 -0.000000 -0.000000  0.000000 -0.337245
  3H   1py        0.000000 -0.000000 -0.000000  0.000000  0.000000  0.194704
                     42        43        44        45        46        47
                   5.14192   5.24263   5.24263   5.67136   5.67136   6.36204
                   0.00000   0.00000   0.00000   0.00000   0.00000   0.00000
                  --------  --------  --------  --------  --------  --------
  0N   1s         0.004718  0.000000  0.000000  0.000000 -0.000000 -0.003202
  0N   2s         0.015654  0.000000  0.000000  0.000000 -0.000001 -0.045137
  0N   3s         0.012063 -0.000002 -0.000000 -0.000000  0.000013  1.747365
  0N   4s        -0.635182  0.000002  0.000000  0.000000 -0.000018 -5.668993
  0N   5s         0.804530  0.000004  0.000000 -0.000000 -0.000001  0.941937
  0N   1pz        0.000000 -0.000000  0.000000 -0.000000 -0.000000 -0.000000
  0N   1px       -0.000001 -0.177156 -0.000121  0.000024 -0.397020  0.000000
  0N   1py       -0.000000 -0.000121  0.177155  0.397024  0.000024  0.000000
  0N   2pz        0.000000  0.000000 -0.000000  0.000000  0.000000  0.000000
  0N   2px        0.000006  0.556338  0.000380 -0.000215  3.589731 -0.000024
  0N   2py        0.000000  0.000380 -0.556323 -3.589723 -0.000215 -0.000000
  0N   3pz       -0.000000  0.000000  0.000000  0.000000 -0.000000 -0.000000
  0N   3px       -0.000002  0.434002  0.000297  0.000010 -0.159420  0.000002
  0N   3py        0.000000  0.000297 -0.434002  0.159416  0.000010  0.000000
  0N   1dz2       1.180943  0.000004  0.000000  0.000000 -0.000003  0.254791
  0N   1dxz      -0.000000  0.000000  0.000000  0.000000 -0.000000 -0.000000
  0N   1dyz      -0.000000  0.000000 -0.000000  0.000000  0.000000 -0.000000
  0N   1dx2y2     0.000006 -1.191407 -0.000814 -0.000023  0.389721 -0.000005
  0N   1dxy       0.000000  0.000814 -1.191410  0.389714  0.000023 -0.000000
  0N   2dz2      -0.669547 -0.000004 -0.000000 -0.000000  0.000007  1.176357
  0N   2dxz       0.000000 -0.000000 -0.000000  0.000000 -0.000000 -0.000000
  0N   2dyz       0.000000 -0.000000  0.000000  0.000000  0.000000  0.000000
  0N   2dx2y2    -0.000001  1.361722  0.000931 -0.000101  1.679037 -0.000012
  0N   2dxy      -0.000000 -0.000931  1.361716  1.679046  0.000101 -0.000000
  0N   1f0       -0.000000 -0.000000 -0.000000 -0.000000 -0.000000 -0.000000
  0N   1f+1      -0.000002 -0.400439 -0.000274  0.000064 -1.067643  0.000006
  0N   1f-1      -0.000000 -0.000274  0.400434  1.067644  0.000064  0.000000
  0N   1f+2       0.000000 -0.000000 -0.000000  0.000000 -0.000000 -0.000000
  0N   1f-2      -0.000000  0.000000 -0.000000 -0.000000 -0.000000 -0.000000
  0N   1f+3      -0.261234 -0.000003 -0.000000 -0.000000  0.000009  1.489102
  0N   1f-3      -0.000000 -0.000000  0.000000  0.000006 -0.000000  0.000000
  1H   1s        -0.075798 -0.414329 -0.000283  0.000079 -1.319475  0.917752
  1H   2s        -0.005980 -0.639890 -0.000437  0.000132 -2.201450  1.232447
  1H   3s        -0.129946 -0.084004 -0.000057 -0.000033  0.549112 -0.282599
  1H   1pz       -0.000000  0.000000  0.000000  0.000000 -0.000000  0.000000
  1H   1px       -0.199867  0.009393  0.000006 -0.000088  1.467639 -0.959141
  1H   1py        0.000000  0.000160 -0.234400 -0.074707 -0.000004 -0.000000
  2H   1s        -0.075796  0.206917  0.358955  1.142658  0.659809  0.917734
  2H   2s        -0.005978  0.319565  0.554371  1.906447  1.100846  1.232423
  2H   3s        -0.129948  0.041951  0.072779 -0.475526 -0.274585 -0.282592
  2H   1pz       -0.000000 -0.000000 -0.000000  0.000000  0.000000  0.000000
  2H   1px        0.099934  0.178217 -0.097309  0.603134  0.422980  0.479565
  2H   1py       -0.173093  0.097474 -0.065577 -1.119373 -0.603230 -0.830629
  3H   1s        -0.075796  0.207407 -0.358672 -1.142737  0.659672  0.917734
  3H   2s        -0.005978  0.320323 -0.553934 -1.906579  1.100617  1.232423
  3H   3s        -0.129948  0.042051 -0.072721  0.475559 -0.274528 -0.282592
  3H   1pz       -0.000000 -0.000000  0.000000 -0.000000  0.000000  0.000000
  3H   1px        0.099934  0.178083  0.097553 -0.603185  0.422907  0.479565
  3H   1py        0.173093 -0.097384 -0.065710 -1.119445  0.603096  0.830629
                     48
                  32.85755
                   0.00000
                  --------
  0N   1s        -1.388305
  0N   2s         1.693696
  0N   3s        -1.505684
  0N   4s         1.529856
  0N   5s        -1.085432
  0N   1pz        0.000000
  0N   1px        0.000000
  0N   1py       -0.000000
  0N   2pz       -0.000000
  0N   2px       -0.000003
  0N   2py       -0.000000
  0N   3pz        0.000000
  0N   3px        0.000000
  0N   3py       -0.000000
  0N   1dz2       0.010928
  0N   1dxz      -0.000000
  0N   1dyz       0.000000
  0N   1dx2y2    -0.000000
  0N   1dxy      -0.000000
  0N   2dz2      -0.010892
  0N   2dxz       0.000000
  0N   2dyz      -0.000000
  0N   2dx2y2    -0.000001
  0N   2dxy       0.000000
  0N   1f0        0.000000
  0N   1f+1       0.000000
  0N   1f-1       0.000000
  0N   1f+2       0.000000
  0N   1f-2      -0.000000
  0N   1f+3      -0.015398
  0N   1f-3      -0.000000
  1H   1s        -0.022592
  1H   2s        -0.018874
  1H   3s         0.194934
  1H   1pz        0.000000
  1H   1px       -0.034265
  1H   1py       -0.000000
  2H   1s        -0.022594
  2H   2s        -0.018877
  2H   3s         0.194934
  2H   1pz        0.000000
  2H   1px        0.017131
  2H   1py       -0.029672
  3H   1s        -0.022594
  3H   2s        -0.018877
  3H   3s         0.194934
  3H   1pz        0.000000
  3H   1px        0.017131
  3H   1py        0.029672

MULLIKEN ATOMIC CHARGES
-----------------------
   0 N :   -0.784844
   1 H :    0.261614
   2 H :    0.261615
   3 H :    0.261615
Sum of atomic charges:   -0.0000000

LOEWDIN ATOMIC CHARGES
----------------------
   0 N :   -0.393117
   1 H :    0.131038
   2 H :    0.131039
   3 H :    0.131039

  Mayer bond orders larger than 0.100000
B(  0-N ,  1-H ) :   0.9294 B(  0-N ,  2-H ) :   0.9294 B(  0-N ,  3-H ) :   0.9294

E(0)                                       ...    -56.209994640
E(0)                                       ...    -56.209994640
E(CORR)(strong-pairs)                      ...     -0.238629328
E(CORR)(weak-pairs)                        ...     -0.000074831
E(CORR)(corrected)                         ...     -0.238704159
E(TOT)                                     ...    -56.448698799
E(CCSD(T))                                 ...    -56.455341754
FINAL SINGLE POINT ENERGY       -56.453858984367

DIPOLE MOMENT
-------------
                                X             Y             Z
Electronic contribution:      0.00000      -0.00000       0.00000
Nuclear contribution   :     -0.00000       0.00000      -0.00000
                        -----------------------------------------
Total Dipole Moment    :     -0.00000       0.00000      -0.00000
                        -----------------------------------------
Magnitude (a.u.)       :      0.00000
Magnitude (Debye)      :      0.00000

Rotational constants in cm-1:    11.037472    11.037464     5.518734
Rotational constants in MHz : 330895.083975 330894.851171 165447.483786

                             ****ORCA TERMINATED NORMALLY****
TOTAL RUN TIME: 0 days 0 hours 0 minutes 6 seconds 783 msec
