                         Program Version 4.2.1 -  RELEASE  -
|  1> ! MP2 6-311G(d,p) Opt Freq NoFrozenCore TightOpt TightSCF Grid4 FinalGrid5 PrintBasis PrintMOs NBO
|  2>
|  3> %pal
|  4>  nprocs 4
|  5> end
|  6>
|  7> *xyz 0 1
|  8>   N   -2.44654546502746     -2.76792262752335      0.01532602931109
|  9>   H   -1.43693760178232     -2.81562116086730     -0.00935031033139
| 10>   H   -2.75775174158686     -3.60202014599648      0.49451373307894
| 11>   H   -2.75775519160334     -2.85876606561286     -0.94231945205862
| 12> *
| 13>
| 14>                          ****END OF INPUT****
 Total Charge           Charge          ....    0
 Multiplicity           Mult            ....    1
 Number of Electrons    NEL             ....   10
MP2 TOTAL ENERGY:      -56.427865708 Eh
FINAL SINGLE POINT ENERGY       -56.427865707973
MP2 TOTAL ENERGY:      -56.427874505 Eh
FINAL SINGLE POINT ENERGY       -56.427874504547
MP2 TOTAL ENERGY:      -56.427875512 Eh
FINAL SINGLE POINT ENERGY       -56.427875512217
MP2 TOTAL ENERGY:      -56.427876018 Eh
FINAL SINGLE POINT ENERGY       -56.427876018436
                    ***********************HURRAY********************

CARTESIAN COORDINATES (ANGSTROEM)
---------------------------------
  N     -2.447485   -2.765542    0.016558
  H     -1.436013   -2.816221   -0.009660
  H     -2.757744   -3.603162    0.494538
  H     -2.757748   -2.859406   -0.943265

 Multiplicity           Mult            ....    1
 Number of Electrons    NEL             ....   10
 Basis Dimension        Dim             ....   36

ORBITAL ENERGIES
----------------

  NO   OCC          E(Eh)            E(eV)
   0   2.0000     -15.529495      -422.5791
   1   2.0000      -1.136480       -30.9252
   2   2.0000      -0.620857       -16.8944
   3   2.0000      -0.620855       -16.8943
   4   2.0000      -0.424929       -11.5629
   5   0.0000       0.155979         4.2444
   6   0.0000       0.229902         6.2559
   7   0.0000       0.229902         6.2560
   8   0.0000       0.517386        14.0788
   9   0.0000       0.517387        14.0788

------------------
MOLECULAR ORBITALS
------------------
                      0         1         2         3         4         5
                 -15.52950  -1.13648  -0.62086  -0.62086  -0.42493   0.15598
                   2.00000   2.00000   2.00000   2.00000   2.00000   0.00000
                  --------  --------  --------  --------  --------  --------
  0N   1s         0.557646  0.107182 -0.000000  0.000000  0.035169 -0.041570
  0N   2s         0.468273  0.177282 -0.000000  0.000000  0.059666 -0.067135
  0N   1pz       -0.000854  0.015311  0.031621  0.183085 -0.108621 -0.023699
  0N   1px        0.000657 -0.011782  0.194351 -0.000053  0.083585  0.018236
  0N   1py       -0.001650  0.029599  0.061006 -0.094729 -0.209983 -0.045813
  0N   3s         0.004895 -0.472599  0.000001 -0.000000 -0.179653  0.097007
  0N   2pz        0.000331  0.024544  0.049359  0.285789 -0.162717 -0.039801
  0N   2px       -0.000255 -0.018887  0.303374 -0.000083  0.125212  0.030627
  0N   2py        0.000640  0.047448  0.095227 -0.147868 -0.314558 -0.076942
  0N   4s        -0.000841 -0.323390  0.000001 -0.000000 -0.234305  1.291252
  0N   3pz       -0.000002  0.008054  0.031890  0.184644 -0.198518 -0.103644
  0N   3px        0.000002 -0.006198  0.196004 -0.000054  0.152762  0.079754
  0N   3py       -0.000004  0.015570  0.061525 -0.095535 -0.383768 -0.200360
  0N   1dz2      -0.000025 -0.000851 -0.015458 -0.023024 -0.003543  0.000407
  0N   1dxz      -0.000029 -0.000974 -0.007356 -0.007148 -0.004054  0.000466
  0N   1dyz       0.000073  0.002448  0.001170 -0.018825  0.010185 -0.001171
  0N   1dx2y2    -0.000060 -0.001991  0.025095 -0.013303 -0.008284  0.000952
  0N   1dxy      -0.000056 -0.001884 -0.014215  0.003702 -0.007837  0.000901
  1H   1s         0.000261 -0.090334  0.167472 -0.000046  0.044795 -0.021137
  1H   2s         0.000257 -0.096926  0.252470 -0.000070  0.039862  0.011723
  1H   3s         0.000096 -0.002211  0.092115 -0.000025  0.028554 -0.702261
  1H   1pz       -0.000029  0.000675  0.001939  0.014549 -0.009533 -0.001067
  1H   1px       -0.000111  0.023667 -0.024207  0.000007 -0.002080  0.005018
  1H   1py       -0.000055  0.001304  0.003739 -0.007527 -0.018428 -0.002063
  2H   1s         0.000261 -0.090334 -0.083696  0.145058  0.044795 -0.021137
  2H   2s         0.000257 -0.096926 -0.126175  0.218681  0.039861  0.011724
  2H   3s         0.000096 -0.002211 -0.046036  0.079788  0.028554 -0.702261
  2H   1pz       -0.000096  0.012976  0.012991 -0.003611 -0.014322  0.001068
  2H   1px        0.000066 -0.008581  0.008545  0.011954  0.010474 -0.000578
  2H   1py        0.000050 -0.017896 -0.010504  0.019079 -0.010954 -0.005394
  3H   1s         0.000261 -0.090334 -0.083776 -0.145012  0.044795 -0.021137
  3H   2s         0.000257 -0.096926 -0.126296 -0.218611  0.039861  0.011724
  3H   3s         0.000096 -0.002211 -0.046080 -0.079762  0.028554 -0.702261
  3H   1pz        0.000096 -0.022104 -0.016089 -0.017649 -0.000665 -0.005020
  3H   1px        0.000066 -0.008581  0.008538 -0.011958  0.010474 -0.000578
  3H   1py       -0.000049  0.000250  0.004529 -0.008080 -0.018018 -0.002245
                      6         7         8         9        10        11
                   0.22990   0.22990   0.51739   0.51739   0.66984   0.81871
                   0.00000   0.00000   0.00000   0.00000   0.00000   0.00000
                  --------  --------  --------  --------  --------  --------
  0N   1s         0.000000 -0.000000 -0.000000  0.000000 -0.049264 -0.001257
  0N   2s         0.000000 -0.000000 -0.000000  0.000000 -0.089666 -0.001871
  0N   1pz       -0.019772 -0.114500 -0.067518 -0.011662 -0.006589 -0.104511
  0N   1px       -0.121545  0.000029  0.000020 -0.071673  0.005069  0.080422
  0N   1py       -0.038154  0.059241  0.034934 -0.022497 -0.012737 -0.202036
  0N   3s        -0.000000  0.000000  0.000000 -0.000001  0.199505  0.074690
  0N   2pz       -0.017455 -0.101083 -0.115083 -0.019877 -0.011005 -0.363719
  0N   2px       -0.107302  0.000026  0.000035 -0.122166  0.008467  0.279885
  0N   2py       -0.033683  0.052299  0.059545 -0.038346 -0.021275 -0.703127
  0N   4s        -0.000002  0.000000  0.000000 -0.000008  2.141335 -0.687029
  0N   3pz       -0.107735 -0.623908 -1.191709 -0.205834 -0.486866  0.559884
  0N   3px       -0.662294  0.000159  0.000358 -1.265053  0.374630 -0.430834
  0N   3py       -0.207901  0.322803  0.616598 -0.397084 -0.941190  1.082347
  0N   1dz2      -0.002693  0.002312  0.005458 -0.003447 -0.004175 -0.006645
  0N   1dxz       0.002583 -0.005709 -0.009071  0.004833 -0.004778 -0.007604
  0N   1dyz       0.003594  0.001888  0.004459  0.005940  0.012004  0.019103
  0N   1dx2y2    -0.000422  0.001334  0.003151 -0.002434 -0.009764 -0.015539
  0N   1dxy       0.004997  0.002951  0.004689  0.009350 -0.009237 -0.014700
  1H   1s         0.020493 -0.000005 -0.000023  0.081630 -0.040909 -0.013126
  1H   2s        -0.160260  0.000039 -0.000443  1.552453 -1.594425  0.103417
  1H   3s         1.914635 -0.000464  0.000137 -0.479813  0.338244  0.192876
  1H   1pz       -0.001158 -0.000853 -0.013821 -0.002124 -0.009638 -0.020679
  1H   1px        0.017189 -0.000004  0.000012 -0.043474  0.043457 -0.084901
  1H   1py       -0.002239  0.000442  0.007151 -0.004097 -0.018632 -0.039976
  2H   1s        -0.010242  0.017750  0.070705 -0.040794 -0.040909 -0.013126
  2H   2s         0.080096 -0.138808  1.344674 -0.775834 -1.594444  0.103417
  2H   3s        -0.956914  1.658358 -0.415604  0.239785  0.338246  0.192877
  2H   1pz       -0.004044  0.005900 -0.026193  0.004752  0.008695 -0.071956
  2H   1px        0.001590 -0.004326  0.008087 -0.019334 -0.004597  0.049517
  2H   1py        0.007563 -0.013158  0.027257 -0.016205 -0.047242  0.040055
  3H   1s        -0.010251 -0.017745 -0.070682 -0.040834 -0.040909 -0.013126
  3H   2s         0.080164  0.138769 -1.344231 -0.776602 -1.594444  0.103417
  3H   3s        -0.957718 -1.657894  0.415467  0.240023  0.338246  0.192877
  3H   1pz        0.008516  0.014144 -0.037371 -0.015993 -0.043582  0.074268
  3H   1px        0.001592  0.004325 -0.008076 -0.019339 -0.004597  0.049518
  3H   1py        0.001071  0.002787  0.005632 -0.005482 -0.020200 -0.035584
                     12        13        14        15        16        17
                   0.95574   0.95574   1.11873   1.35180   1.35180   1.80285
                   0.00000   0.00000   0.00000   0.00000   0.00000   0.00000
                  --------  --------  --------  --------  --------  --------
  0N   1s        -0.000000 -0.000000 -0.102065 -0.000001 -0.000000 -0.000000
  0N   2s        -0.000000 -0.000000 -0.210125 -0.000001 -0.000000 -0.000000
  0N   1pz       -0.039764  0.230076 -0.014639 -0.003102  0.017956  0.000000
  0N   1px       -0.244238 -0.000095  0.011265 -0.019060 -0.000006  0.000000
  0N   1py       -0.076651 -0.119053 -0.028299 -0.005983 -0.009290 -0.000000
  0N   3s         0.000002  0.000000  1.675154  0.000009  0.000000  0.000000
  0N   2pz       -0.126903  0.734268  0.083112 -0.012687  0.073444 -0.000005
  0N   2px       -0.779462 -0.000303 -0.063952 -0.077965 -0.000023 -0.000000
  0N   2py       -0.244624 -0.379948  0.160669 -0.024474 -0.038001  0.000002
  0N   4s        -0.000010 -0.000000 -4.328420 -0.000017 -0.000000 -0.000000
  0N   3pz        0.263993 -1.527459  0.295346 -0.052517  0.304043  0.000021
  0N   3px        1.621481  0.000631 -0.227264 -0.322753 -0.000094  0.000000
  0N   3py        0.508884  0.790386  0.570952 -0.101307 -0.157315 -0.000011
  0N   1dz2      -0.039884  0.036551 -0.002895  0.089202  0.066957 -0.000002
  0N   1dxz      -0.005019  0.034567 -0.003313 -0.079674 -0.182306 -0.000002
  0N   1dyz       0.015263  0.029898  0.008324 -0.113885  0.054679 -0.000002
  0N   1dx2y2     0.047421  0.021131 -0.006771  0.006677  0.038644 -0.000001
  0N   1dxy      -0.009669 -0.017886 -0.006405 -0.154156  0.094247  0.000001
  1H   1s         0.026824  0.000011 -0.018417 -0.039856 -0.000012  0.000000
  1H   2s        -0.000225 -0.000000  0.944688  0.306566  0.000090 -0.000000
  1H   3s        -1.238177 -0.000485  0.423690 -0.022319 -0.000007  0.000000
  1H   1pz       -0.011089  0.050993  0.037765 -0.221927 -0.454292 -0.551354
  1H   1px        0.178539  0.000070 -0.285637 -0.054697 -0.000017 -0.000001
  1H   1py       -0.021387 -0.026389  0.073005 -0.429350  0.234839  0.285208
  2H   1s        -0.013403 -0.023236 -0.018417  0.019919  0.034522  0.000003
  2H   2s         0.000118  0.000196  0.944696 -0.153201 -0.265535 -0.000016
  2H   3s         0.618670  1.072537  0.423685  0.011157  0.019333  0.000001
  2H   1pz       -0.066363 -0.048774 -0.092739  0.423788  0.144331  0.357990
  2H   1px       -0.016547  0.065139  0.056465  0.238702 -0.421812  0.506837
  2H   1py        0.076806  0.136215  0.276686  0.136859  0.209911  0.016555
  3H   1s        -0.013421  0.023226 -0.018417  0.019939 -0.034511 -0.000003
  3H   2s         0.000118 -0.000196  0.944696 -0.153358  0.265444  0.000016
  3H   3s         0.619509 -1.072052  0.423685  0.011168 -0.019327 -0.000001
  3H   1pz        0.101141 -0.139278  0.279409 -0.133114 -0.088010  0.193338
  3H   1px       -0.016495 -0.065152  0.056466  0.238452  0.421953 -0.506835
  3H   1py       -0.009755 -0.038905  0.084179  0.425104 -0.238835 -0.301749
                     18        19        20        21        22        23
                   1.81024   1.90728   1.90728   2.16871   2.16872   2.46115
                   0.00000   0.00000   0.00000   0.00000   0.00000   0.00000
                  --------  --------  --------  --------  --------  --------
  0N   1s        -0.037217  0.000000 -0.000000 -0.000000  0.000000 -0.022024
  0N   2s        -0.085340  0.000000 -0.000000 -0.000000  0.000000 -0.028549
  0N   1pz        0.029878 -0.000289 -0.001675  0.131805  0.022766 -0.077190
  0N   1px       -0.022991 -0.001778  0.000001 -0.000040  0.139917  0.059398
  0N   1py        0.057758 -0.000558  0.000866 -0.068197  0.043918 -0.149222
  0N   3s         0.806617 -0.000002  0.000000  0.000000 -0.000004 -0.006415
  0N   2pz        0.030332  0.004087  0.023661  0.331160  0.057200  0.010446
  0N   2px       -0.023340  0.025120 -0.000007 -0.000101  0.351535 -0.008042
  0N   2py        0.058637  0.007884 -0.012243 -0.171345  0.110344  0.020194
  0N   4s        -2.332272  0.000012 -0.000000  0.000000 -0.000004 -0.647238
  0N   3pz        0.493728 -0.164067 -0.949795  0.093217  0.016100  0.044241
  0N   3px       -0.379928 -1.008249  0.000299 -0.000028  0.098947 -0.034040
  0N   3py        0.954456 -0.316477  0.491436 -0.048231  0.031059  0.085526
  0N   1dz2      -0.073489  0.156427  0.125117  0.308600  0.231200 -0.085929
  0N   1dxz      -0.084104  0.008511  0.148484  0.132151  0.088165 -0.098344
  0N   1dyz       0.211285 -0.069671  0.102338  0.252333 -0.036668  0.247052
  0N   1dx2y2    -0.171866 -0.172164  0.072316  0.178310 -0.348226 -0.200961
  0N   1dxy      -0.162587  0.016342 -0.076815 -0.068421  0.170341 -0.190116
  1H   1s        -0.049674 -0.312590  0.000094  0.000166 -0.574835 -0.775238
  1H   2s         0.961330  1.082709 -0.000324 -0.000190  0.657921  1.147888
  1H   3s         0.016881 -0.157364  0.000047  0.000149 -0.517363 -0.296011
  1H   1pz       -0.253079  0.279958  0.512235 -0.298700 -0.164899  0.102776
  1H   1px        0.017379  0.138146 -0.000040 -0.000119  0.409084  0.040418
  1H   1py       -0.489244  0.540830 -0.265177  0.154630 -0.318564  0.198683
  2H   1s        -0.049672  0.156214 -0.270763 -0.497898  0.287269 -0.775238
  2H   2s         0.961326 -0.541082  0.937822  0.569858 -0.328787  1.147886
  2H   3s         0.016882  0.078641 -0.136311 -0.448123  0.258551 -0.296010
  2H   1pz       -0.343290  0.058482  0.564333 -0.115349 -0.157403  0.163559
  2H   1px        0.253872  0.574419 -0.053173 -0.108890 -0.254233 -0.118925
  2H   1py       -0.348436 -0.116763  0.233167 -0.474540  0.263436  0.103806
  3H   1s        -0.049672  0.156376  0.270669  0.497732  0.287556 -0.775238
  3H   2s         0.961326 -0.541643 -0.937498 -0.569668 -0.329116  1.147886
  3H   3s         0.016882  0.078723  0.136264  0.447974  0.258809 -0.296010
  3H   1pz       -0.086032 -0.129011  0.135845  0.320483  0.306144 -0.009780
  3H   1px        0.253873  0.574450  0.052831  0.109037 -0.254169 -0.118925
  3H   1py       -0.481512 -0.020090 -0.595308  0.368322  0.023957  0.193473
                     24        25        26        27        28        29
                   2.68122   2.68122   2.86669   2.99019   2.99019   3.12790
                   0.00000   0.00000   0.00000   0.00000   0.00000   0.00000
                  --------  --------  --------  --------  --------  --------
  0N   1s         0.000000 -0.000000  0.032514 -0.000000 -0.000002  0.073436
  0N   2s         0.000001 -0.000000  0.091896 -0.000000 -0.000005  0.170850
  0N   1pz       -0.002458 -0.014231  0.038793 -0.059897  0.010345  0.105596
  0N   1px       -0.015106  0.000004 -0.029852  0.000019  0.063583 -0.081253
  0N   1py       -0.004742  0.007363  0.074993  0.030992  0.019954  0.204135
  0N   3s        -0.000008  0.000000 -0.606841  0.000000  0.000032 -0.987592
  0N   2pz        0.194300  1.124989  0.196499 -0.042892  0.007399  0.220861
  0N   2px        1.194216 -0.000324 -0.151222  0.000014  0.045530 -0.169953
  0N   2py        0.374866 -0.582071  0.379864  0.022193  0.014272  0.426961
  0N   4s        -0.000036  0.000000 -2.631012  0.000000  0.000110 -3.173257
  0N   3pz        0.086094  0.498443  0.503336 -0.442622  0.076443  0.352298
  0N   3px        0.529120 -0.000143 -0.387317  0.000144  0.469868 -0.271078
  0N   3py        0.166102 -0.257895  0.973030  0.229020  0.147445  0.681049
  0N   1dz2      -0.262001 -0.271020  0.129459  0.406617  0.391172 -0.196722
  0N   1dxz      -0.051807 -0.205328  0.148128 -0.879225 -0.418441 -0.225149
  0N   1dyz       0.083750 -0.221630 -0.372170  0.332117 -0.559999  0.565586
  0N   1dx2y2     0.334964 -0.156607  0.302717  0.234722  0.114932 -0.460067
  0N   1dxy      -0.100010  0.106247  0.286355  0.454496 -0.809583 -0.435249
  1H   1s         0.842884 -0.000230 -0.482846 -0.000007 -0.023186  0.073171
  1H   2s        -2.423761  0.000662  1.780024 -0.000083 -0.269997  1.539885
  1H   3s         0.532831 -0.000146 -0.112059 -0.000032 -0.103853  0.076029
  1H   1pz       -0.044565 -0.018797 -0.206162  0.519722  0.149478  0.059009
  1H   1px        1.354973 -0.000370 -0.652766  0.000038  0.118082 -0.992760
  1H   1py       -0.086132  0.009753 -0.398549 -0.268732  0.289358  0.114070
  2H   1s        -0.421254  0.730085 -0.482832  0.020094  0.011611  0.073178
  2H   2s         1.211345 -2.099389  1.779986  0.233818  0.134820  1.539889
  2H   3s        -0.266292  0.461525 -0.112049  0.089957  0.051904  0.076037
  2H   1pz       -0.324029  0.537139 -0.618865 -0.063723 -0.426313 -0.422846
  2H   1px        0.187903 -0.360253  0.429105  0.405802 -0.317418  0.270376
  2H   1py        0.566529 -0.982994  0.245559 -0.082402 -0.065583  0.866124
  3H   1s        -0.421653 -0.729854 -0.482832 -0.020087  0.011624  0.073178
  3H   2s         1.212493  2.098727  1.779986 -0.233735  0.134964  1.539889
  3H   3s        -0.266545 -0.461379 -0.112049 -0.089925  0.051959  0.076037
  3H   1pz        0.650219  1.112300  0.558000  0.030556  0.192780  0.951230
  3H   1px        0.188103  0.360154  0.429108 -0.405998 -0.317167  0.270379
  3H   1py        0.062949  0.129544 -0.363217  0.099383 -0.385902  0.155333
                     30        31        32        33        34        35
                   3.45629   3.45629   4.43150   5.21653   5.21654  37.04018
                   0.00000   0.00000   0.00000   0.00000   0.00000   0.00000
                  --------  --------  --------  --------  --------  --------
  0N   1s        -0.000000 -0.000000  0.035347 -0.000000 -0.000000  2.149734
  0N   2s        -0.000001 -0.000000  0.072079 -0.000000 -0.000000 -2.284025
  0N   1pz        0.092882 -0.537634 -0.558068 -1.121173  0.193637  0.013068
  0N   1px        0.570721  0.000184  0.429440  0.000322  1.190160 -0.010055
  0N   1py        0.179131  0.278185 -1.078835  0.580097  0.373589  0.025262
  0N   3s         0.000005  0.000000 -0.404305  0.000000 -0.000000  0.435461
  0N   2pz        0.005303 -0.030695  0.779524  2.243505 -0.387474 -0.059530
  0N   2px        0.032587  0.000011 -0.599854 -0.000644 -2.381556  0.045809
  0N   2py        0.010227  0.015883  1.506947 -1.160793 -0.747565 -0.115081
  0N   4s         0.000007  0.000000 -1.571387  0.000000  0.000006  0.104229
  0N   3pz        0.125188 -0.724624 -0.000642 -0.072586  0.012535 -0.026095
  0N   3px        0.769221  0.000248  0.000497  0.000021  0.077050  0.020080
  0N   3py        0.241436  0.374938 -0.001242  0.037556  0.024185 -0.050445
  0N   1dz2      -0.692423  0.688346 -0.030526 -0.631245  0.557577  0.009586
  0N   1dxz      -0.119922  0.562253 -0.034939 -0.398506  0.143546  0.010972
  0N   1dyz       0.236227  0.562958  0.087768 -0.516183 -0.149036 -0.027562
  0N   1dx2y2     0.864067  0.397831 -0.071397 -0.364745 -0.754141  0.022420
  0N   1dxy      -0.231371 -0.290939 -0.067542  0.206236  0.277223  0.021210
  1H   1s        -0.642109 -0.000209  0.126352  0.000168  0.618027 -0.004387
  1H   2s        -0.372336 -0.000121  0.735913  0.000250  0.918318 -0.183405
  1H   3s        -0.442792 -0.000144  0.010994 -0.000063 -0.230192  0.033025
  1H   1pz       -0.012934 -0.063010 -0.068793 -0.132772  0.047846  0.002011
  1H   1px        0.750165  0.000244 -0.464508 -0.000295 -1.081389  0.130236
  1H   1py       -0.025050  0.032584 -0.132991  0.068713  0.092400  0.003887
  2H   1s         0.320870  0.556183  0.126351 -0.535308 -0.308869 -0.004387
  2H   2s         0.186060  0.322513  0.735909 -0.795414 -0.458945 -0.183404
  2H   3s         0.221270  0.383540  0.010995  0.199384  0.115041  0.033025
  2H   1pz       -0.146224 -0.335325 -0.331976  0.375697  0.316318  0.069038
  2H   1px        0.168483  0.176140  0.225418 -0.330738 -0.049905 -0.045475
  2H   1py        0.307782  0.529719  0.277779 -0.800310 -0.457166 -0.100728
  3H   1s         0.321231 -0.555975  0.126351  0.535140 -0.309161 -0.004387
  3H   2s         0.186270 -0.322392  0.735909  0.795164 -0.459378 -0.183404
  3H   3s         0.221520 -0.383396  0.010995 -0.199322  0.115150  0.033025
  3H   1pz        0.336100 -0.625877  0.418532  0.869969 -0.556372 -0.122102
  3H   1px        0.168599 -0.176033  0.225420  0.330714 -0.050087 -0.045475
  3H   1py        0.058514 -0.032351 -0.110449  0.155785 -0.006066 -0.001854

MULLIKEN ATOMIC CHARGES
-----------------------
   0 N :   -0.558159
   1 H :    0.186054
   2 H :    0.186053
   3 H :    0.186053
Sum of atomic charges:   -0.0000000

LOEWDIN ATOMIC CHARGES
----------------------
   0 N :   -0.071508
   1 H :    0.023836
   2 H :    0.023836
   3 H :    0.023836

  Mayer bond orders larger than 0.100000
B(  0-N ,  1-H ) :   0.9285 B(  0-N ,  2-H ) :   0.9285 B(  0-N ,  3-H ) :   0.9285

MP2 TOTAL ENERGY:      -56.427876029 Eh
FINAL SINGLE POINT ENERGY       -56.427876028787

DIPOLE MOMENT
-------------
                                X             Y             Z
Electronic contribution:     -0.07201       0.18093       0.09359
Nuclear contribution   :      0.30153      -0.75751      -0.39185
                        -----------------------------------------
Total Dipole Moment    :      0.22951      -0.57659      -0.29826
                        -----------------------------------------
Magnitude (a.u.)       :      0.68854
Magnitude (Debye)      :      1.75013

VIBRATIONAL FREQUENCIES
-----------------------

Scaling factor for frequencies =  1.000000000  (already applied!)

   0:         0.00 cm**-1
   1:         0.00 cm**-1
   2:         0.00 cm**-1
   3:         0.00 cm**-1
   4:         0.00 cm**-1
   5:         0.00 cm**-1
   6:      1125.22 cm**-1
   7:      1678.04 cm**-1
   8:      1678.06 cm**-1
   9:      3531.72 cm**-1
  10:      3675.45 cm**-1
  11:      3675.46 cm**-1

IR SPECTRUM
-----------

 Mode    freq (cm**-1)   T**2         TX         TY         TZ
-------------------------------------------------------------------
   6:      1125.22  168.018402  (  4.320326 -10.855431  -5.613626)
   7:      1678.04   17.062469  ( -1.495950  -2.222141   3.144311)
   8:      1678.06   17.048983  ( -3.593737  -0.399225  -1.993654)
   9:      3531.72    0.298370  (  0.181547  -0.457786  -0.236311)
  10:      3675.45    0.370174  (  0.032962   0.290084  -0.533797)
  11:      3675.46    0.371789  ( -0.573660  -0.164373  -0.125240)

--------------------------
THERMOCHEMISTRY AT 298.15K
--------------------------

Temperature         ... 298.15 K
Pressure            ... 1.00 atm
Total Mass          ... 17.03 AMU

Throughout the following assumptions are being made:
  (1) The electronic state is orbitally nondegenerate
  (2) There are no thermally accessible electronically excited states
  (3) Hindered rotations indicated by low frequency modes are not
      treated as such but are treated as vibrations and this may
      cause some error
  (4) All equations used are the standard statistical mechanics
      equations for an ideal gas
  (5) All vibrations are strictly harmonic

freq.    1125.22  E(vib)   ...       0.01
freq.    1678.04  E(vib)   ...       0.00
freq.    1678.06  E(vib)   ...       0.00
freq.    3531.72  E(vib)   ...       0.00
freq.    3675.45  E(vib)   ...       0.00
freq.    3675.46  E(vib)   ...       0.00

------------
INNER ENERGY
------------

The inner energy is: U= E(el) + E(ZPE) + E(vib) + E(rot) + E(trans)
    E(el)   - is the total energy from the electronic structure calculation
              = E(kin-el) + E(nuc-el) + E(el-el) + E(nuc-nuc)
    E(ZPE)  - the the zero temperature vibrational energy from the frequency calculation
    E(vib)  - the the finite temperature correction to E(ZPE) due to population
              of excited vibrational states
    E(rot)  - is the rotational thermal energy
    E(trans)- is the translational thermal energy

Summary of contributions to the inner energy U:
Electronic energy                ...    -56.42787603 Eh
Zero point energy                ...      0.03500166 Eh      21.96 kcal/mol
Thermal vibrational correction   ...      0.00002723 Eh       0.02 kcal/mol
Thermal rotational correction    ...      0.00141627 Eh       0.89 kcal/mol
Thermal translational correction ...      0.00141627 Eh       0.89 kcal/mol
-----------------------------------------------------------------------
Total thermal energy                    -56.39001460 Eh

Summary of corrections to the electronic energy:
(perhaps to be used in another calculation)
Total thermal correction                  0.00285977 Eh       1.79 kcal/mol
Non-thermal (ZPE) correction              0.03500166 Eh      21.96 kcal/mol
-----------------------------------------------------------------------
Total correction                          0.03786143 Eh      23.76 kcal/mol

--------
ENTHALPY
--------

The enthalpy is H = U + kB*T
                kB is Boltzmann's constant
Total free energy                 ...    -56.39001460 Eh
Thermal Enthalpy correction       ...      0.00094421 Eh       0.59 kcal/mol
-----------------------------------------------------------------------
Total Enthalpy                    ...    -56.38907039 Eh

Note: Rotational entropy computed according to Herzberg
Infrared and Raman Spectra, Chapter V,1, Van Nostrand Reinhold, 1945
Point Group:  Cs, Symmetry Number:   1
Rotational constants in cm-1:     9.911349     9.911277     6.382030

Vibrational entropy computed according to the QRRHO of S. Grimme
Chem.Eur.J. 2012 18 9955

-------
ENTROPY
-------

The entropy contributions are T*S = T*(S(el)+S(vib)+S(rot)+S(trans))
     S(el)   - electronic entropy
     S(vib)  - vibrational entropy
     S(rot)  - rotational entropy
     S(trans)- translational entropy
The entropies will be listed as mutliplied by the temperature to get
units of energy

Electronic entropy                ...      0.00000000 Eh      0.00 kcal/mol
Vibrational entropy               ...      0.00003196 Eh      0.02 kcal/mol
Rotational entropy                ...      0.00647015 Eh      4.06 kcal/mol
Translational entropy             ...      0.01636425 Eh     10.27 kcal/mol
-----------------------------------------------------------------------
Final entropy term                ...      0.02286637 Eh     14.35 kcal/mol

In case the symmetry of your molecule has not been determined correctly
or in case you have a reason to use a different symmetry number we print
out the resulting rotational entropy values for sn=1,12 :
 --------------------------------------------------------
|  sn= 1 | S(rot)=       0.00647015 Eh      4.06 kcal/mol|
|  sn= 2 | S(rot)=       0.00581569 Eh      3.65 kcal/mol|
|  sn= 3 | S(rot)=       0.00543286 Eh      3.41 kcal/mol|
|  sn= 4 | S(rot)=       0.00516124 Eh      3.24 kcal/mol|
|  sn= 5 | S(rot)=       0.00495055 Eh      3.11 kcal/mol|
|  sn= 6 | S(rot)=       0.00477841 Eh      3.00 kcal/mol|
|  sn= 7 | S(rot)=       0.00463286 Eh      2.91 kcal/mol|
|  sn= 8 | S(rot)=       0.00450678 Eh      2.83 kcal/mol|
|  sn= 9 | S(rot)=       0.00439557 Eh      2.76 kcal/mol|
|  sn=10 | S(rot)=       0.00429609 Eh      2.70 kcal/mol|
|  sn=11 | S(rot)=       0.00420610 Eh      2.64 kcal/mol|
|  sn=12 | S(rot)=       0.00412395 Eh      2.59 kcal/mol|
 --------------------------------------------------------

-------------------
GIBBS FREE ENERGY
-------------------

The Gibbs free energy is G = H - T*S

Total enthalpy                    ...    -56.38907039 Eh
Total entropy correction          ...     -0.02286637 Eh    -14.35 kcal/mol
-----------------------------------------------------------------------
Final Gibbs free energy         ...    -56.41193676 Eh

For completeness - the Gibbs free energy minus the electronic energy
G-E(el)                           ...      0.01593927 Eh     10.00 kcal/mol

                             ****ORCA TERMINATED NORMALLY****
TOTAL RUN TIME: 0 days 0 hours 0 minutes 55 seconds 594 msec
