                         Program Version 4.2.1 -  RELEASE  -
|  1> ! MP2 6-311G(d,p) OptTS Freq IRC NoFrozenCore TightOpt TightSCF Grid4 FinalGrid5 PrintBasis PrintMOs NBO
|  2>
|  3> %geom
|  4>  ts_mode
|  5>   {D 1 2 3 0}
|  6>  end
|  7>  ts_active_atoms
|  8>   {0 1 2 3}
|  9>  end
| 10>  inhess read
| 11>  inhessname "freq.hess"
| 12> end
| 13>
| 14> %irc
| 15>  maxiter 1000
| 16>  de_init_displ 0.25
| 17>  TolMAXG 1e-3
| 18>  TolRMSG 2e-4
| 19> end
| 20>
| 21> %pal
| 22>  nprocs 4
| 23> end
| 24>
| 25> *xyz 0 1
| 26>   N   0.00000000131419     -0.00000000001565      0.00000000811939
| 27>   H   0.99425136476648      0.00000000003133     -0.00000000270640
| 28>   H   -0.49712568301770      0.86104693771793     -0.00000000270651
| 29>   H   -0.49712568306293     -0.86104693773364     -0.00000000270651
| 30> *
| 31>
| 32>                          ****END OF INPUT****
 Total Charge           Charge          ....    0
 Multiplicity           Mult            ....    1
 Number of Electrons    NEL             ....   10
MP2 TOTAL ENERGY:      -56.417749971 Eh
FINAL SINGLE POINT ENERGY       -56.417749970887
MP2 TOTAL ENERGY:      -56.417758461 Eh
FINAL SINGLE POINT ENERGY       -56.417758460990
                    ***********************HURRAY********************

CARTESIAN COORDINATES (ANGSTROEM)
---------------------------------
  N     -0.000000   -0.000000   -0.000000
  H      0.995991    0.000000    0.000000
  H     -0.497995    0.862553    0.000000
  H     -0.497995   -0.862553    0.000000

 Multiplicity           Mult            ....    1
 Number of Electrons    NEL             ....   10
 Basis Dimension        Dim             ....   36

ORBITAL ENERGIES
----------------

  NO   OCC          E(Eh)            E(eV)
   0   2.0000     -15.507066      -421.9687
   1   2.0000      -1.115846       -30.3637
   2   2.0000      -0.642065       -17.4715
   3   2.0000      -0.642065       -17.4715
   4   2.0000      -0.383237       -10.4284
   5   0.0000       0.163856         4.4588
   6   0.0000       0.232836         6.3358
   7   0.0000       0.232836         6.3358
   8   0.0000       0.539721        14.6866
   9   0.0000       0.539721        14.6866

------------------
MOLECULAR ORBITALS
------------------
                      0         1         2         3         4         5
                 -15.50707  -1.11585  -0.64207  -0.64207  -0.38324   0.16386
                   2.00000   2.00000   2.00000   2.00000   2.00000   0.00000
                  --------  --------  --------  --------  --------  --------
  0N   1s         0.557551 -0.109236  0.000000 -0.000000  0.000000  0.046682
  0N   2s         0.468188 -0.180648  0.000000 -0.000000  0.000000  0.075755
  0N   1pz        0.000000  0.000000 -0.000000  0.000000  0.268144 -0.000000
  0N   1px        0.000000 -0.000000 -0.008609  0.206376 -0.000000 -0.000000
  0N   1py        0.000000  0.000000  0.206376  0.008609 -0.000000 -0.000000
  0N   3s         0.005459  0.476776 -0.000000  0.000000 -0.000000 -0.114886
  0N   2pz       -0.000000  0.000000 -0.000000  0.000000  0.400890 -0.000000
  0N   2px       -0.000000 -0.000000 -0.013352  0.320057 -0.000000 -0.000000
  0N   2py        0.000000  0.000000  0.320057  0.013352 -0.000000 -0.000000
  0N   4s        -0.000130  0.343045 -0.000000  0.000000 -0.000000 -1.407405
  0N   3pz        0.000000  0.000000 -0.000000  0.000000  0.512308 -0.000000
  0N   3px        0.000000  0.000000 -0.008721  0.209057 -0.000000 -0.000000
  0N   3py        0.000000  0.000000  0.209057  0.008721 -0.000000 -0.000000
  0N   1dz2       0.000005 -0.011883 -0.000000  0.000000  0.000000  0.012017
  0N   1dxz      -0.000000  0.000000 -0.000000  0.000000 -0.000000 -0.000000
  0N   1dyz      -0.000000  0.000000  0.000000  0.000000 -0.000000 -0.000000
  0N   1dx2y2     0.000000  0.000000 -0.000929  0.022263  0.000000  0.000000
  0N   1dxy      -0.000000 -0.000000 -0.022263 -0.000929 -0.000000 -0.000000
  1H   1s         0.000234  0.089777 -0.007213  0.172908  0.000000  0.028066
  1H   2s        -0.000184  0.092003 -0.009822  0.235439 -0.000000  0.011061
  1H   3s         0.000133  0.002392 -0.003244  0.077768 -0.000000  0.723737
  1H   1pz        0.000000 -0.000000  0.000000 -0.000000  0.025626 -0.000000
  1H   1px        0.000102 -0.021987  0.001010 -0.024203 -0.000000 -0.007987
  1H   1py       -0.000000  0.000000  0.013347  0.000557 -0.000000  0.000000
  2H   1s         0.000234  0.089777  0.153349 -0.080207  0.000000  0.028066
  2H   2s        -0.000184  0.092003  0.208807 -0.109214 -0.000000  0.011061
  2H   3s         0.000133  0.002392  0.068971 -0.036074 -0.000000  0.723737
  2H   1pz        0.000000 -0.000000 -0.000000  0.000000  0.025626 -0.000000
  2H   1px       -0.000051  0.010994  0.016094  0.004638  0.000000  0.003994
  2H   1py        0.000088 -0.019042 -0.015493  0.015641 -0.000000 -0.006917
  3H   1s         0.000234  0.089777 -0.146136 -0.092701  0.000000  0.028066
  3H   2s        -0.000184  0.092003 -0.198985 -0.126225 -0.000000  0.011061
  3H   3s         0.000133  0.002392 -0.065727 -0.041694 -0.000000  0.723737
  3H   1pz        0.000000 -0.000000  0.000000  0.000000  0.025626 -0.000000
  3H   1px       -0.000051  0.010994 -0.016425  0.003281  0.000000  0.003994
  3H   1py       -0.000088  0.019042 -0.014137 -0.016878  0.000000  0.006917
                      6         7         8         9        10        11
                   0.23284   0.23284   0.53972   0.53972   0.58784   0.82816
                   0.00000   0.00000   0.00000   0.00000   0.00000   0.00000
                  --------  --------  --------  --------  --------  --------
  0N   1s         0.000000  0.000000  0.000000 -0.000000 -0.041357  0.000000
  0N   2s         0.000000  0.000000  0.000000 -0.000000 -0.074134  0.000000
  0N   1pz        0.000000  0.000000  0.000000  0.000000  0.000000  0.232020
  0N   1px        0.122816  0.003989  0.060696 -0.000509  0.000000 -0.000000
  0N   1py       -0.003989  0.122816  0.000509  0.060696 -0.000000 -0.000000
  0N   3s        -0.000000 -0.000000 -0.000000  0.000000  0.157866  0.000000
  0N   2pz        0.000000  0.000000  0.000000  0.000000  0.000000  0.888707
  0N   2px        0.098787  0.003209  0.131881 -0.001106  0.000000 -0.000000
  0N   2py       -0.003209  0.098787  0.001106  0.131881 -0.000000 -0.000000
  0N   4s        -0.000000 -0.000000 -0.000000  0.000000  1.709799 -0.000000
  0N   3pz        0.000000  0.000000  0.000000  0.000000  0.000000 -1.179568
  0N   3px        0.722952  0.023482  1.677538 -0.014070  0.000000  0.000000
  0N   3py       -0.023482  0.722952  0.014070  1.677538 -0.000000  0.000000
  0N   1dz2      -0.000000 -0.000000 -0.000000  0.000000  0.009442  0.000000
  0N   1dxz       0.000000  0.000000  0.000000 -0.000000 -0.000000  0.000000
  0N   1dyz      -0.000000  0.000000  0.000000  0.000000 -0.000000  0.000000
  0N   1dx2y2    -0.004544 -0.000148  0.007582 -0.000064  0.000000 -0.000000
  0N   1dxy      -0.000148  0.004544 -0.000064 -0.007582  0.000000 -0.000000
  1H   1s        -0.011516 -0.000374 -0.062729  0.000526 -0.065361 -0.000000
  1H   2s         0.152400  0.004950 -1.737943  0.014576 -1.266295  0.000000
  1H   3s        -1.864036 -0.060544  0.300594 -0.002521  0.329949  0.000000
  1H   1pz       -0.000000 -0.000000  0.000000 -0.000000  0.000000  0.042734
  1H   1px       -0.018196 -0.000591  0.072011 -0.000604  0.027495 -0.000000
  1H   1py        0.000072 -0.002215  0.000337  0.040215 -0.000000 -0.000000
  2H   1s         0.006082 -0.009786  0.030909 -0.054588 -0.065361 -0.000000
  2H   2s        -0.080487  0.129507  0.856348 -1.512391 -1.266295  0.000000
  2H   3s         0.984451 -1.584031 -0.148114  0.261583  0.329949  0.000000
  2H   1pz        0.000000 -0.000000 -0.000000  0.000000  0.000000  0.042734
  2H   1px       -0.006435  0.006718  0.048049 -0.014172 -0.013748  0.000000
  2H   1py        0.007381 -0.013976 -0.013231  0.064178  0.023812 -0.000000
  3H   1s         0.005434  0.010160  0.031820  0.054062 -0.065361 -0.000000
  3H   2s        -0.071913 -0.134457  0.881595  1.497815 -1.266295  0.000000
  3H   3s         0.879585  1.644575 -0.152480 -0.259061  0.329949  0.000000
  3H   1pz        0.000000  0.000000 -0.000000 -0.000000  0.000000  0.042734
  3H   1px       -0.005985 -0.007122  0.048280  0.013364 -0.013748  0.000000
  3H   1py       -0.006459 -0.014425  0.014305  0.063947 -0.023812  0.000000
                     12        13        14        15        16        17
                   0.96156   0.96156   1.11803   1.45299   1.45299   1.73066
                   0.00000   0.00000   0.00000   0.00000   0.00000   0.00000
                  --------  --------  --------  --------  --------  --------
  0N   1s        -0.000000  0.000000 -0.107070 -0.000000 -0.000000  0.000000
  0N   2s        -0.000000  0.000000 -0.217157  0.000000 -0.000000  0.000000
  0N   1pz        0.000000 -0.000000  0.000000  0.000000  0.000000 -0.000000
  0N   1px        0.264457  0.004346 -0.000000 -0.000000  0.000000 -0.000000
  0N   1py        0.004346 -0.264457 -0.000000  0.000000  0.000000 -0.000000
  0N   3s         0.000000 -0.000000  1.628380 -0.000000  0.000000 -0.000000
  0N   2pz        0.000000 -0.000000 -0.000000  0.000000 -0.000000 -0.000000
  0N   2px        0.805306  0.013235 -0.000000 -0.000000  0.000000  0.000000
  0N   2py        0.013235 -0.805306 -0.000000  0.000000  0.000000  0.000000
  0N   4s        -0.000000  0.000000 -3.896862  0.000000 -0.000000  0.000000
  0N   3pz       -0.000000 -0.000000 -0.000000 -0.000000  0.000000 -0.000000
  0N   3px       -1.744046 -0.028664 -0.000000 -0.000000  0.000000 -0.000000
  0N   3py       -0.028664  1.744046  0.000000  0.000000  0.000000 -0.000000
  0N   1dz2       0.000000 -0.000000  0.093032  0.000000 -0.000000 -0.000000
  0N   1dxz      -0.000000 -0.000000 -0.000000  0.021494 -0.244595  0.000000
  0N   1dyz      -0.000000  0.000000  0.000000 -0.244595 -0.021494 -0.000000
  0N   1dx2y2    -0.071046 -0.001168  0.000000 -0.000000  0.000000 -0.000000
  0N   1dxy       0.001168 -0.071046 -0.000000 -0.000000 -0.000000  0.000000
  1H   1s        -0.022509 -0.000370 -0.020848 -0.000000  0.000000 -0.000000
  1H   2s         0.005882  0.000097  0.628847  0.000000 -0.000000  0.000000
  1H   3s         1.242293  0.020417  0.497579  0.000000 -0.000000  0.000000
  1H   1pz       -0.000000 -0.000000 -0.000000  0.062252 -0.708407  0.000000
  1H   1px       -0.196949 -0.003237 -0.288153 -0.000000  0.000000  0.000000
  1H   1py        0.000699 -0.042504 -0.000000 -0.000000 -0.000000 -0.606114
  2H   1s         0.010934  0.019679 -0.020848  0.000000 -0.000000 -0.000000
  2H   2s        -0.002857 -0.005142  0.628847 -0.000000  0.000000  0.000000
  2H   3s        -0.603464 -1.086066  0.497579 -0.000000  0.000000  0.000000
  2H   1pz        0.000000  0.000000 -0.000000 -0.644625  0.300292  0.000000
  2H   1px       -0.015655 -0.103971  0.144076 -0.000000 -0.000000  0.524911
  2H   1py        0.101433  0.138790 -0.249548  0.000000 -0.000000  0.303057
  3H   1s         0.011575 -0.019309 -0.020848 -0.000000 -0.000000  0.000000
  3H   2s        -0.003025  0.005045  0.628847  0.000000  0.000000 -0.000000
  3H   3s        -0.638828  1.065648  0.497579  0.000000  0.000000 -0.000000
  3H   1pz        0.000000 -0.000000 -0.000000  0.582373  0.408115 -0.000000
  3H   1px       -0.019064  0.103401  0.144076  0.000000 -0.000000 -0.524911
  3H   1py       -0.105939  0.135382  0.249548 -0.000000  0.000000  0.303057
                     18        19        20        21        22        23
                   1.85994   1.85994   2.02095   2.18881   2.33685   2.33685
                   0.00000   0.00000   0.00000   0.00000   0.00000   0.00000
                  --------  --------  --------  --------  --------  --------
  0N   1s         0.000000  0.000000 -0.000000 -0.042082 -0.000000 -0.000000
  0N   2s         0.000000  0.000000 -0.000000 -0.083948 -0.000000 -0.000000
  0N   1pz        0.000000  0.000000 -0.108786  0.000000  0.000000 -0.000000
  0N   1px        0.000097 -0.004870  0.000000 -0.000000  0.192694 -0.004684
  0N   1py        0.004870  0.000097 -0.000000  0.000000 -0.004684 -0.192694
  0N   3s        -0.000000 -0.000000  0.000000  0.494211  0.000000  0.000000
  0N   2pz       -0.000000  0.000000 -0.161370  0.000000 -0.000000 -0.000000
  0N   2px       -0.006108  0.305544  0.000000  0.000000 -0.324792  0.007894
  0N   2py       -0.305544 -0.006108 -0.000000 -0.000000  0.007894  0.324792
  0N   4s         0.000000 -0.000000 -0.000000 -0.936576  0.000000 -0.000000
  0N   3pz        0.000000 -0.000000 -0.581447  0.000000  0.000000 -0.000000
  0N   3px        0.030126 -1.506982  0.000000 -0.000000  0.077605 -0.001886
  0N   3py        1.506982  0.030126  0.000000  0.000000 -0.001886 -0.077605
  0N   1dz2      -0.000000 -0.000000  0.000000  0.595431  0.000000  0.000000
  0N   1dxz       0.000000 -0.000000  0.000000 -0.000000 -0.000000  0.000000
  0N   1dyz       0.000000  0.000000 -0.000000 -0.000000  0.000000  0.000000
  0N   1dx2y2     0.005199 -0.260059 -0.000000  0.000000 -0.595915  0.014484
  0N   1dxy      -0.260059 -0.005199 -0.000000  0.000000 -0.014484 -0.595915
  1H   1s         0.004221 -0.211145 -0.000000 -0.522580 -0.906837  0.022041
  1H   2s        -0.022677  1.134386  0.000000  0.945266  1.506816 -0.036624
  1H   3s        -0.000135  0.006774 -0.000000 -0.216781 -0.711947  0.017304
  1H   1pz        0.000000 -0.000000  0.700252 -0.000000  0.000000 -0.000000
  1H   1px       -0.006520  0.326156  0.000000  0.191220 -0.248910  0.006050
  1H   1py       -0.742918 -0.014852 -0.000000 -0.000000  0.011645  0.479124
  2H   1s         0.180746  0.109228 -0.000000 -0.522580  0.472507  0.774323
  2H   2s        -0.971068 -0.586832  0.000000  0.945266 -0.785125 -1.286629
  2H   3s        -0.005799 -0.003504 -0.000000 -0.216781  0.370960  0.607912
  2H   1pz        0.000000  0.000000  0.700252 -0.000000 -0.000000 -0.000000
  2H   1px       -0.193232  0.635120 -0.000000 -0.095610 -0.419147  0.109932
  2H   1py       -0.433954  0.171860  0.000000  0.165602 -0.092237  0.308886
  3H   1s        -0.184967  0.101917 -0.000000 -0.522580  0.434330 -0.796364
  3H   2s         0.993746 -0.547554  0.000000  0.945266 -0.721691  1.323253
  3H   3s         0.005934 -0.003270 -0.000000 -0.216781  0.340988 -0.625217
  3H   1pz       -0.000000  0.000000  0.700252 -0.000000 -0.000000  0.000000
  3H   1px        0.167694  0.642335 -0.000000 -0.095610 -0.423993 -0.089439
  3H   1py       -0.426739 -0.189066 -0.000000 -0.165602  0.107134  0.304040
                     24        25        26        27        28        29
                   2.67139   2.81720   2.81720   2.82684   2.82684   3.40566
                   0.00000   0.00000   0.00000   0.00000   0.00000   0.00000
                  --------  --------  --------  --------  --------  --------
  0N   1s        -0.044645  0.000000 -0.000000  0.000000  0.000000 -0.078367
  0N   2s        -0.131338  0.000000 -0.000000  0.000000  0.000000 -0.176002
  0N   1pz        0.000000  0.000000  0.000000  0.000000 -0.000000  0.000000
  0N   1px        0.000000  0.188887 -0.004349  0.000000 -0.000000  0.000000
  0N   1py        0.000000 -0.004349 -0.188887  0.000000  0.000000  0.000000
  0N   3s         1.160659 -0.000000  0.000000 -0.000000 -0.000000  1.087487
  0N   2pz        0.000000  0.000000 -0.000000 -0.000000  0.000000  0.000000
  0N   2px        0.000000  1.472394 -0.033898  0.000001 -0.000000 -0.000000
  0N   2py        0.000000 -0.033898 -1.472394  0.000000  0.000001 -0.000000
  0N   4s         1.435017 -0.000000  0.000000 -0.000000 -0.000000  2.677602
  0N   3pz        0.000000  0.000000 -0.000000  0.000000 -0.000000  0.000000
  0N   3px        0.000000  1.495249 -0.034425  0.000001 -0.000000  0.000000
  0N   3py        0.000000 -0.034425 -1.495249  0.000000  0.000001 -0.000000
  0N   1dz2       0.119776 -0.000000  0.000000  0.000000  0.000000 -1.223223
  0N   1dxz      -0.000000 -0.000001  0.000000  1.099658 -0.001774  0.000000
  0N   1dyz       0.000000  0.000000  0.000001  0.001774  1.099658  0.000000
  0N   1dx2y2     0.000000  0.392300 -0.009032  0.000000 -0.000000  0.000000
  0N   1dxy      -0.000000  0.009032  0.392300 -0.000000 -0.000000 -0.000000
  1H   1s         0.688733  0.326795 -0.007524  0.000000 -0.000000 -0.312079
  1H   2s        -1.545354 -2.499684  0.057549 -0.000002  0.000000 -1.121334
  1H   3s         0.208006  0.054428 -0.001253  0.000000 -0.000000 -0.129193
  1H   1pz       -0.000000  0.000001 -0.000000 -0.597220  0.000964  0.000000
  1H   1px        0.679687  1.575321 -0.036268  0.000001 -0.000000  0.958371
  1H   1py       -0.000000  0.012854  0.558310 -0.000000 -0.000000  0.000000
  2H   1s         0.688733 -0.169913 -0.279251 -0.000000  0.000000 -0.312079
  2H   2s        -1.545354  1.299681  2.136015  0.000001 -0.000002 -1.121334
  2H   3s         0.208006 -0.028299 -0.046510 -0.000000  0.000000 -0.129193
  2H   1pz       -0.000000 -0.000000 -0.000000  0.297776 -0.517690  0.000000
  2H   1px       -0.339843 -0.003632  0.924463 -0.000000 -0.000001 -0.479186
  2H   1py        0.588626 -0.947877 -1.020643 -0.000001  0.000001  0.829974
  3H   1s         0.688733 -0.156882  0.286775 -0.000000 -0.000000 -0.312079
  3H   2s        -1.545354  1.200003 -2.193564  0.000001  0.000002 -1.121334
  3H   3s         0.208006 -0.026129  0.047763 -0.000000 -0.000000 -0.129193
  3H   1pz       -0.000000 -0.000000  0.000000  0.299445  0.516726  0.000000
  3H   1px       -0.339843 -0.046173 -0.923316 -0.000000  0.000001 -0.479186
  3H   1py       -0.588626  0.899902 -1.063183  0.000001  0.000001 -0.829974
                     30        31        32        33        34        35
                   3.54034   3.54034   4.21331   5.32571   5.32571  37.09884
                   0.00000   0.00000   0.00000   0.00000   0.00000   0.00000
                  --------  --------  --------  --------  --------  --------
  0N   1s         0.000000 -0.000000  0.000000 -0.000000 -0.000000 -2.150322
  0N   2s         0.000000 -0.000000  0.000000 -0.000000  0.000000  2.287138
  0N   1pz        0.000000 -0.000000  1.295979  0.000000  0.000000  0.000000
  0N   1px        0.001610 -0.551254 -0.000000  1.291176  0.020229  0.000000
  0N   1py        0.551254  0.001610  0.000000 -0.020229  1.291176 -0.000000
  0N   3s        -0.000000  0.000000 -0.000000  0.000000  0.000000 -0.466289
  0N   2pz       -0.000000  0.000000 -1.435146 -0.000000 -0.000000 -0.000000
  0N   2px       -0.000545  0.186455  0.000000 -2.743011 -0.042974 -0.000000
  0N   2py       -0.186455 -0.000545  0.000000  0.042974 -2.743011  0.000000
  0N   4s        -0.000000  0.000000 -0.000000 -0.000000 -0.000000 -0.039721
  0N   3pz        0.000000 -0.000000  0.449752  0.000000  0.000000 -0.000000
  0N   3px        0.000606 -0.207375 -0.000000  0.102492  0.001606 -0.000000
  0N   3py        0.207375  0.000606  0.000000 -0.001606  0.102492  0.000000
  0N   1dz2       0.000000 -0.000000  0.000000  0.000000  0.000000  0.085782
  0N   1dxz       0.000000 -0.000000 -0.000000 -0.000000 -0.000000 -0.000000
  0N   1dyz       0.000000  0.000000  0.000000  0.000000 -0.000000  0.000000
  0N   1dx2y2     0.003309 -1.132854 -0.000000 -0.923073 -0.014462  0.000000
  0N   1dxy      -1.132854 -0.003309  0.000000 -0.014462  0.923073 -0.000000
  1H   1s        -0.002205  0.754842  0.000000  0.682819  0.010698  0.007823
  1H   2s         0.000979 -0.335102  0.000000  0.957474  0.015001  0.158598
  1H   3s        -0.001146  0.392458  0.000000 -0.239670 -0.003755 -0.034961
  1H   1pz        0.000000 -0.000000  0.114061 -0.000000 -0.000000 -0.000000
  1H   1px        0.001164 -0.398430 -0.000000 -1.125608 -0.017635 -0.130699
  1H   1py        0.443649  0.001296 -0.000000 -0.001249  0.079736 -0.000000
  2H   1s        -0.652610 -0.379331  0.000000 -0.350674  0.585990  0.007823
  2H   2s         0.289717  0.168399  0.000000 -0.491728  0.821697  0.158598
  2H   3s        -0.339305 -0.197222  0.000000  0.123087 -0.205683 -0.034961
  2H   1pz        0.000000  0.000000  0.114061  0.000000 -0.000000 -0.000000
  2H   1px        0.020843 -0.432287  0.000000 -0.229777  0.518457  0.065350
  2H   1py        0.409792 -0.018383 -0.000000  0.534843 -0.816095 -0.113189
  3H   1s         0.654815 -0.375511  0.000000 -0.332145 -0.596687  0.007823
  3H   2s        -0.290696  0.166703  0.000000 -0.465746 -0.836697  0.158598
  3H   3s         0.340452 -0.195236  0.000000  0.116583  0.209438 -0.034961
  3H   1pz       -0.000000  0.000000  0.114061  0.000000  0.000000 -0.000000
  3H   1px       -0.018317 -0.432402  0.000000 -0.213423 -0.525401  0.065350
  3H   1py        0.409678  0.020777  0.000000 -0.509015 -0.832449  0.113189

MULLIKEN ATOMIC CHARGES
-----------------------
   0 N :   -0.654779
   1 H :    0.218260
   2 H :    0.218260
   3 H :    0.218260
Sum of atomic charges:   -0.0000000

LOEWDIN ATOMIC CHARGES
----------------------
   0 N :   -0.070040
   1 H :    0.023347
   2 H :    0.023347
   3 H :    0.023347

  Mayer bond orders larger than 0.100000
B(  0-N ,  1-H ) :   0.9261 B(  0-N ,  2-H ) :   0.9261 B(  0-N ,  3-H ) :   0.9261

MP2 TOTAL ENERGY:      -56.417758465 Eh
FINAL SINGLE POINT ENERGY       -56.417758464674

DIPOLE MOMENT
-------------
                                X             Y             Z
Electronic contribution:      0.00000       0.00000      -0.00000
Nuclear contribution   :      0.00000       0.00000       0.00000
                        -----------------------------------------
Total Dipole Moment    :      0.00000       0.00000       0.00000
                        -----------------------------------------
Magnitude (a.u.)       :      0.00000
Magnitude (Debye)      :      0.00000

VIBRATIONAL FREQUENCIES
-----------------------

Scaling factor for frequencies =  1.000000000  (already applied!)

   0:         0.00 cm**-1
   1:         0.00 cm**-1
   2:         0.00 cm**-1
   3:         0.00 cm**-1
   4:         0.00 cm**-1
   5:         0.00 cm**-1
   6:      -909.47 cm**-1 ***imaginary mode***
   7:      1595.85 cm**-1
   8:      1595.86 cm**-1
   9:      3702.40 cm**-1
  10:      3916.52 cm**-1
  11:      3916.53 cm**-1

IR SPECTRUM
-----------

 Mode    freq (cm**-1)   T**2         TX         TY         TZ
-------------------------------------------------------------------
   7:      1595.85   37.521622  (  0.000087   6.125490   0.000000)
   8:      1595.86   37.515379  (  6.124980  -0.000087   0.000000)
   9:      3702.40    0.000000  (  0.000247  -0.000000  -0.000000)
  10:      3916.52   40.718003  ( -0.000044   6.381066   0.000000)
  11:      3916.53   40.718682  (  6.381119   0.000044   0.000000)

--------------------------
THERMOCHEMISTRY AT 298.15K
--------------------------

Temperature         ... 298.15 K
Pressure            ... 1.00 atm
Total Mass          ... 17.03 AMU

Throughout the following assumptions are being made:
  (1) The electronic state is orbitally nondegenerate
  (2) There are no thermally accessible electronically excited states
  (3) Hindered rotations indicated by low frequency modes are not
      treated as such but are treated as vibrations and this may
      cause some error
  (4) All equations used are the standard statistical mechanics
      equations for an ideal gas
  (5) All vibrations are strictly harmonic

freq.    1595.85  E(vib)   ...       0.00
freq.    1595.86  E(vib)   ...       0.00
freq.    3702.40  E(vib)   ...       0.00
freq.    3916.52  E(vib)   ...       0.00
freq.    3916.53  E(vib)   ...       0.00

------------
INNER ENERGY
------------

The inner energy is: U= E(el) + E(ZPE) + E(vib) + E(rot) + E(trans)
    E(el)   - is the total energy from the electronic structure calculation
              = E(kin-el) + E(nuc-el) + E(el-el) + E(nuc-nuc)
    E(ZPE)  - the the zero temperature vibrational energy from the frequency calculation
    E(vib)  - the the finite temperature correction to E(ZPE) due to population
              of excited vibrational states
    E(rot)  - is the rotational thermal energy
    E(trans)- is the translational thermal energy

Summary of contributions to the inner energy U:
Electronic energy                ...    -56.41775846 Eh
Zero point energy                ...      0.03355095 Eh      21.05 kcal/mol
Thermal vibrational correction   ...      0.00000658 Eh       0.00 kcal/mol
Thermal rotational correction    ...      0.00141627 Eh       0.89 kcal/mol
Thermal translational correction ...      0.00141627 Eh       0.89 kcal/mol
-----------------------------------------------------------------------
Total thermal energy                    -56.38136839 Eh

Summary of corrections to the electronic energy:
(perhaps to be used in another calculation)
Total thermal correction                  0.00283913 Eh       1.78 kcal/mol
Non-thermal (ZPE) correction              0.03355095 Eh      21.05 kcal/mol
-----------------------------------------------------------------------
Total correction                          0.03639007 Eh      22.84 kcal/mol

--------
ENTHALPY
--------

The enthalpy is H = U + kB*T
                kB is Boltzmann's constant
Total free energy                 ...    -56.38136839 Eh
Thermal Enthalpy correction       ...      0.00094421 Eh       0.59 kcal/mol
-----------------------------------------------------------------------
Total Enthalpy                    ...    -56.38042418 Eh

Note: Rotational entropy computed according to Herzberg
Infrared and Raman Spectra, Chapter V,1, Van Nostrand Reinhold, 1945
Point Group:  D3h, Symmetry Number:   6
Rotational constants in cm-1:    11.239179    11.239179     5.619590

Vibrational entropy computed according to the QRRHO of S. Grimme
Chem.Eur.J. 2012 18 9955

-------
ENTROPY
-------

The entropy contributions are T*S = T*(S(el)+S(vib)+S(rot)+S(trans))
     S(el)   - electronic entropy
     S(vib)  - vibrational entropy
     S(rot)  - rotational entropy
     S(trans)- translational entropy
The entropies will be listed as mutliplied by the temperature to get
units of energy

Electronic entropy                ...      0.00000000 Eh      0.00 kcal/mol
Vibrational entropy               ...      0.00000744 Eh      0.00 kcal/mol
Rotational entropy                ...      0.00471976 Eh      2.96 kcal/mol
Translational entropy             ...      0.01636425 Eh     10.27 kcal/mol
-----------------------------------------------------------------------
Final entropy term                ...      0.02109145 Eh     13.24 kcal/mol

In case the symmetry of your molecule has not been determined correctly
or in case you have a reason to use a different symmetry number we print
out the resulting rotational entropy values for sn=1,12 :
 --------------------------------------------------------
|  sn= 1 | S(rot)=       0.00641150 Eh      4.02 kcal/mol|
|  sn= 2 | S(rot)=       0.00575705 Eh      3.61 kcal/mol|
|  sn= 3 | S(rot)=       0.00537421 Eh      3.37 kcal/mol|
|  sn= 4 | S(rot)=       0.00510259 Eh      3.20 kcal/mol|
|  sn= 5 | S(rot)=       0.00489190 Eh      3.07 kcal/mol|
|  sn= 6 | S(rot)=       0.00471976 Eh      2.96 kcal/mol|
|  sn= 7 | S(rot)=       0.00457421 Eh      2.87 kcal/mol|
|  sn= 8 | S(rot)=       0.00444813 Eh      2.79 kcal/mol|
|  sn= 9 | S(rot)=       0.00433693 Eh      2.72 kcal/mol|
|  sn=10 | S(rot)=       0.00423745 Eh      2.66 kcal/mol|
|  sn=11 | S(rot)=       0.00414746 Eh      2.60 kcal/mol|
|  sn=12 | S(rot)=       0.00406530 Eh      2.55 kcal/mol|
 --------------------------------------------------------

-------------------
GIBBS FREE ENERGY
-------------------

The Gibbs free energy is G = H - T*S

Total enthalpy                    ...    -56.38042418 Eh
Total entropy correction          ...     -0.02109145 Eh    -13.24 kcal/mol
-----------------------------------------------------------------------
Final Gibbs free energy         ...    -56.40151563 Eh

For completeness - the Gibbs free energy minus the electronic energy
G-E(el)                           ...      0.01624283 Eh     10.19 kcal/mol

                      ***********************HURRAY********************
                             ****ORCA TERMINATED NORMALLY****
TOTAL RUN TIME: 0 days 0 hours 10 minutes 8 seconds 560 msec
