                         Program Version 4.2.1 -  RELEASE  -
|  1> ! DLPNO-CCSD(T) cc-pVTZ RIJCOSX AutoAux TightSCF Grid4 FinalGrid5 PrintBasis PrintMOs
|  2> %maxcore 1150
|  3>
|  4> * xyzfile 0 1 init.xyz
|  5>
|  6> %cpcm
|  7>  smd true
|  8>  smdsolvent "water"
|  9> end
| 10>
| 11>                          ****END OF INPUT****

CARTESIAN COORDINATES (ANGSTROEM)
---------------------------------
  Ne     0.000000    0.000000    0.000000

 Total Charge           Charge          ....    0
 Multiplicity           Mult            ....    1
 Number of Electrons    NEL             ....   10
 Basis Dimension        Dim             ....   30

ORBITAL ENERGIES
----------------

  NO   OCC          E(Eh)            E(eV)
   0   2.0000     -32.768770      -891.6836
   1   2.0000      -1.926201       -52.4146
   2   2.0000      -0.844473       -22.9793
   3   2.0000      -0.844473       -22.9793
   4   2.0000      -0.844473       -22.9793
   5   0.0000       1.099713        29.9247
   6   0.0000       1.099713        29.9247
   7   0.0000       1.099713        29.9247
   8   0.0000       1.418603        38.6021
   9   0.0000       3.105519        84.5055

------------------
MOLECULAR ORBITALS
------------------
                      0         1         2         3         4         5
                 -32.76877  -1.92620  -0.84447  -0.84447  -0.84447   1.09971
                   2.00000   2.00000   2.00000   2.00000   2.00000   0.00000
                  --------  --------  --------  --------  --------  --------
  0Ne  1s        -0.975720 -0.000012  0.000000  0.000000  0.000000  0.000000
  0Ne  2s        -0.000026  0.587977  0.000000  0.000000  0.000000  0.000000
  0Ne  3s        -0.043878  0.177386  0.000000  0.000000  0.000000 -0.000000
  0Ne  4s        -0.002365  0.365093 -0.000000 -0.000000  0.000000 -0.000000
  0Ne  1pz       -0.000000 -0.000000 -0.264593 -0.055472  0.301312  0.084856
  0Ne  1px       -0.000000  0.000000  0.041992 -0.400933 -0.036938 -0.175318
  0Ne  1py       -0.000000  0.000000 -0.303484 -0.007113 -0.267810  0.164353
  0Ne  2pz       -0.000000 -0.000000 -0.317148 -0.066490  0.361160  0.234153
  0Ne  2px        0.000000  0.000000  0.050333 -0.480569 -0.044275 -0.483774
  0Ne  2py       -0.000000  0.000000 -0.363763 -0.008525 -0.321004  0.453516
  0Ne  3pz       -0.000000  0.000000 -0.217394 -0.045577  0.247562 -0.394298
  0Ne  3px       -0.000000  0.000000  0.034501 -0.329413 -0.030349  0.814641
  0Ne  3py       -0.000000  0.000000 -0.249347 -0.005844 -0.220037 -0.763690
  0Ne  1dz2       0.000000  0.000000 -0.000000 -0.000000  0.000000 -0.000000
  0Ne  1dxz       0.000000  0.000000  0.000000  0.000000 -0.000000 -0.000000
  0Ne  1dyz      -0.000000 -0.000000  0.000000  0.000000  0.000000 -0.000000
  0Ne  1dx2y2    -0.000000 -0.000000  0.000000 -0.000000 -0.000000 -0.000000
  0Ne  1dxy      -0.000000 -0.000000 -0.000000  0.000000  0.000000  0.000000
  0Ne  2dz2       0.000000 -0.000000  0.000000  0.000000 -0.000000 -0.000000
  0Ne  2dxz       0.000000 -0.000000 -0.000000 -0.000000  0.000000 -0.000000
  0Ne  2dyz       0.000000 -0.000000 -0.000000 -0.000000 -0.000000  0.000000
  0Ne  2dx2y2     0.000000 -0.000000  0.000000 -0.000000 -0.000000 -0.000000
  0Ne  2dxy       0.000000 -0.000000  0.000000 -0.000000 -0.000000  0.000000
  0Ne  1f0       -0.000000  0.000000  0.000000  0.000000 -0.000000 -0.000000
  0Ne  1f+1       0.000000 -0.000000  0.000000 -0.000000 -0.000000 -0.000000
  0Ne  1f-1       0.000000 -0.000000 -0.000000 -0.000000 -0.000000  0.000000
  0Ne  1f+2      -0.000000 -0.000000  0.000000  0.000000  0.000000 -0.000000
  0Ne  1f-2       0.000000  0.000000 -0.000000 -0.000000 -0.000000 -0.000000
  0Ne  1f+3      -0.000000 -0.000000  0.000000 -0.000000 -0.000000 -0.000000
  0Ne  1f-3      -0.000000  0.000000  0.000000  0.000000  0.000000 -0.000000
                      6         7         8         9        10        11
                   1.09971   1.09971   1.41860   3.10552   3.10552   3.10552
                   0.00000   0.00000   0.00000   0.00000   0.00000   0.00000
                  --------  --------  --------  --------  --------  --------
  0Ne  1s         0.000000  0.000000  0.509806  0.000000  0.000000 -0.000000
  0Ne  2s         0.000000  0.000000  1.396915  0.000000 -0.000000 -0.000000
  0Ne  3s        -0.000000 -0.000000  0.245656 -0.000000 -0.000000 -0.000000
  0Ne  4s        -0.000000 -0.000000 -1.653173 -0.000000  0.000000  0.000000
  0Ne  1pz        0.005506 -0.240245 -0.000000 -0.000000 -0.000000 -0.000000
  0Ne  1px        0.175671 -0.057897 -0.000000  0.000000  0.000000 -0.000000
  0Ne  1py        0.184548  0.062280 -0.000000  0.000000  0.000000  0.000000
  0Ne  2pz        0.015194 -0.662936 -0.000000  0.000000  0.000000  0.000000
  0Ne  2px        0.484748 -0.159763 -0.000000 -0.000000  0.000000 -0.000000
  0Ne  2py        0.509245  0.171856 -0.000000  0.000000 -0.000000 -0.000000
  0Ne  3pz       -0.025585  1.116337  0.000000  0.000000 -0.000000  0.000000
  0Ne  3px       -0.816282  0.269029  0.000000  0.000000 -0.000000  0.000000
  0Ne  3py       -0.857533 -0.289394  0.000000 -0.000000  0.000000  0.000000
  0Ne  1dz2      -0.000000 -0.000000 -0.000000  0.000001  0.000003  0.000001
  0Ne  1dxz      -0.000000  0.000000 -0.000000  0.016622  0.002387 -0.024568
  0Ne  1dyz      -0.000000 -0.000000  0.000000 -0.010259 -0.026272 -0.009494
  0Ne  1dx2y2     0.000000 -0.000000  0.000000 -0.000001  0.000006  0.000001
  0Ne  1dxy       0.000000 -0.000000 -0.000000  0.022451 -0.013773  0.013852
  0Ne  2dz2       0.000000 -0.000000  0.000000 -0.000034 -0.000118 -0.000043
  0Ne  2dxz       0.000000 -0.000000  0.000000 -0.566715 -0.081370  0.837614
  0Ne  2dyz       0.000000  0.000000  0.000000  0.349779  0.895699  0.323667
  0Ne  2dx2y2     0.000000 -0.000000  0.000000  0.000033 -0.000219 -0.000049
  0Ne  2dxy      -0.000000  0.000000 -0.000000 -0.765423  0.469558 -0.472256
  0Ne  1f0       -0.000000  0.000000  0.000000  0.000000  0.000000  0.000000
  0Ne  1f+1       0.000000 -0.000000  0.000000 -0.000000  0.000000 -0.000000
  0Ne  1f-1       0.000000  0.000000  0.000000  0.000000  0.000000  0.000000
  0Ne  1f+2      -0.000000 -0.000000 -0.000000 -0.000000  0.000000 -0.000000
  0Ne  1f-2       0.000000  0.000000  0.000000 -0.000000 -0.000000  0.000000
  0Ne  1f+3       0.000000 -0.000000  0.000000 -0.000000  0.000000 -0.000000
  0Ne  1f-3      -0.000000 -0.000000  0.000000 -0.000000  0.000000 -0.000000
                     12        13        14        15        16        17
                   3.10552   3.10552   6.15679   6.15679   6.15679   9.64835
                   0.00000   0.00000   0.00000   0.00000   0.00000   0.00000
                  --------  --------  --------  --------  --------  --------
  0Ne  1s        -0.000000  0.000000  0.000000  0.000000  0.000000 -0.000000
  0Ne  2s        -0.000000  0.000000  0.000000  0.000000  0.000000 -0.000000
  0Ne  3s        -0.000000  0.000000 -0.000000 -0.000000 -0.000000  0.000000
  0Ne  4s         0.000000 -0.000000 -0.000000 -0.000000 -0.000000  0.000000
  0Ne  1pz        0.000000  0.000000  0.684461  0.158230 -0.983173  0.000000
  0Ne  1px       -0.000000 -0.000000 -0.280710  1.175293 -0.006273 -0.000000
  0Ne  1py        0.000000  0.000000  0.955441  0.231949  0.702484  0.000000
  0Ne  2pz       -0.000000 -0.000000 -0.799890 -0.184915  1.148977 -0.000000
  0Ne  2px        0.000000  0.000000  0.328049 -1.373497  0.007331  0.000000
  0Ne  2py       -0.000000 -0.000000 -1.116568 -0.271065 -0.820952 -0.000000
  0Ne  3pz       -0.000000  0.000000  0.321257  0.074267 -0.461460  0.000000
  0Ne  3px        0.000000 -0.000000 -0.131753  0.551633 -0.002944 -0.000000
  0Ne  3py        0.000000  0.000000  0.448444  0.108867  0.329716  0.000000
  0Ne  1dz2       0.000170  0.029758  0.000000  0.000000 -0.000000  0.000000
  0Ne  1dxz      -0.000001  0.000000 -0.000000 -0.000000  0.000000 -0.000000
  0Ne  1dyz      -0.000006  0.000004  0.000000  0.000000 -0.000000  0.000000
  0Ne  1dx2y2    -0.029758  0.000170  0.000000 -0.000000 -0.000000 -0.000000
  0Ne  1dxy      -0.000003  0.000000  0.000000  0.000000  0.000000  0.000000
  0Ne  2dz2      -0.005780 -1.014569  0.000000 -0.000000 -0.000000 -0.000000
  0Ne  2dxz       0.000042 -0.000008 -0.000000  0.000000 -0.000000  0.000000
  0Ne  2dyz       0.000197 -0.000131 -0.000000 -0.000000 -0.000000 -0.000000
  0Ne  2dx2y2     1.014569 -0.005780 -0.000000  0.000000  0.000000  0.000000
  0Ne  2dxy       0.000104 -0.000010 -0.000000  0.000000 -0.000000 -0.000000
  0Ne  1f0        0.000000  0.000000 -0.000001 -0.000000  0.000001  0.000046
  0Ne  1f+1       0.000000 -0.000000 -0.000000  0.000001 -0.000000 -0.117331
  0Ne  1f-1      -0.000000 -0.000000  0.000001  0.000000  0.000000 -0.695959
  0Ne  1f+2       0.000000 -0.000000 -0.000000  0.000000 -0.000000  0.074438
  0Ne  1f-2      -0.000000 -0.000000  0.000000 -0.000000 -0.000000  0.444429
  0Ne  1f+3       0.000000  0.000000 -0.000000  0.000001 -0.000000  0.090967
  0Ne  1f-3       0.000000  0.000000 -0.000001 -0.000000 -0.000001 -0.539019
                     18        19        20        21        22        23
                   9.64835   9.64835   9.64835   9.64835   9.64835   9.64835
                   0.00000   0.00000   0.00000   0.00000   0.00000   0.00000
                  --------  --------  --------  --------  --------  --------
  0Ne  1s         0.000000  0.000000  0.000000  0.000000 -0.000000  0.000000
  0Ne  2s         0.000000  0.000000  0.000000  0.000000 -0.000000  0.000000
  0Ne  3s        -0.000000 -0.000000 -0.000000 -0.000000  0.000000 -0.000000
  0Ne  4s        -0.000000 -0.000000  0.000000 -0.000000  0.000000 -0.000000
  0Ne  1pz       -0.000000  0.000000 -0.000000 -0.000000  0.000000  0.000001
  0Ne  1px        0.000000  0.000000 -0.000000 -0.000001 -0.000001 -0.000000
  0Ne  1py       -0.000000 -0.000000 -0.000000  0.000001 -0.000001  0.000000
  0Ne  2pz        0.000000 -0.000000 -0.000000  0.000000 -0.000000 -0.000001
  0Ne  2px       -0.000000 -0.000000  0.000000  0.000001  0.000001  0.000000
  0Ne  2py        0.000000  0.000000  0.000000 -0.000001  0.000001 -0.000000
  0Ne  3pz       -0.000000  0.000000 -0.000000 -0.000000  0.000000  0.000001
  0Ne  3px        0.000000  0.000000 -0.000000 -0.000000 -0.000000 -0.000000
  0Ne  3py       -0.000000 -0.000000 -0.000000  0.000000 -0.000000  0.000000
  0Ne  1dz2       0.000000  0.000000  0.000000 -0.000000 -0.000000  0.000000
  0Ne  1dxz      -0.000000  0.000000 -0.000000  0.000000 -0.000000  0.000000
  0Ne  1dyz      -0.000000  0.000000  0.000000 -0.000000  0.000000 -0.000000
  0Ne  1dx2y2    -0.000000  0.000000 -0.000000  0.000000  0.000000 -0.000000
  0Ne  1dxy      -0.000000  0.000000 -0.000000  0.000000  0.000000 -0.000000
  0Ne  2dz2       0.000000 -0.000000 -0.000000  0.000000  0.000000 -0.000000
  0Ne  2dxz       0.000000 -0.000000  0.000000 -0.000000  0.000000 -0.000000
  0Ne  2dyz       0.000000 -0.000000 -0.000000  0.000000 -0.000000  0.000000
  0Ne  2dx2y2     0.000000  0.000000  0.000000 -0.000000 -0.000000  0.000000
  0Ne  2dxy       0.000000 -0.000000  0.000000 -0.000000 -0.000000  0.000000
  0Ne  1f0       -0.000005  0.000010 -0.000002 -0.000104  0.000063  1.000000
  0Ne  1f+1      -0.698380 -0.027978  0.410375  0.376088  0.433434  0.000015
  0Ne  1f-1       0.117372  0.414357  0.029026 -0.433457  0.376094 -0.000040
  0Ne  1f+2       0.439128 -0.061421  0.888787 -0.058182 -0.067277 -0.000000
  0Ne  1f-2      -0.074550  0.886202  0.060824  0.066914 -0.058257 -0.000019
  0Ne  1f+3       0.540231  0.013156 -0.192151  0.533501  0.614946  0.000015
  0Ne  1f-3       0.090822  0.195516  0.013657  0.614969 -0.533489  0.000121
                     24        25        26        27        28        29
                  11.57855  11.57855  11.57855  11.57855  11.57855  11.74521
                   0.00000   0.00000   0.00000   0.00000   0.00000   0.00000
                  --------  --------  --------  --------  --------  --------
  0Ne  1s        -0.000000  0.000000 -0.000000 -0.000000 -0.000000 -2.322062
  0Ne  2s        -0.000000  0.000000 -0.000000 -0.000000 -0.000000 -2.875151
  0Ne  3s         0.000000 -0.000000  0.000000  0.000000  0.000000  2.407724
  0Ne  4s         0.000000 -0.000000  0.000000  0.000000  0.000000  1.173530
  0Ne  1pz       -0.000000  0.000000  0.000000  0.000000 -0.000000 -0.000000
  0Ne  1px       -0.000000  0.000000  0.000000 -0.000000 -0.000000 -0.000000
  0Ne  1py        0.000000 -0.000000  0.000000 -0.000000 -0.000000  0.000000
  0Ne  2pz        0.000000 -0.000000 -0.000000  0.000000  0.000000  0.000000
  0Ne  2px        0.000000 -0.000000 -0.000000  0.000000  0.000000  0.000000
  0Ne  2py       -0.000000  0.000000 -0.000000  0.000000  0.000000 -0.000000
  0Ne  3pz       -0.000000  0.000000  0.000000  0.000000  0.000000 -0.000000
  0Ne  3px       -0.000000  0.000000  0.000000 -0.000000 -0.000000 -0.000000
  0Ne  3py        0.000000 -0.000000  0.000000 -0.000000 -0.000000  0.000000
  0Ne  1dz2      -0.000039  0.000146 -0.000048  0.017913  1.155149 -0.000000
  0Ne  1dxz      -0.734627  0.028145  0.891190 -0.000024  0.000009 -0.000000
  0Ne  1dyz       0.382974 -1.032812  0.348311 -0.000248  0.000162 -0.000000
  0Ne  1dx2y2     0.000022  0.000280 -0.000023 -1.155149  0.017913  0.000000
  0Ne  1dxy      -0.805198 -0.516911 -0.647417 -0.000128  0.000013  0.000000
  0Ne  2dz2       0.000019 -0.000070  0.000023 -0.008580 -0.553280  0.000000
  0Ne  2dxz       0.351863 -0.013481 -0.426852  0.000012 -0.000004  0.000000
  0Ne  2dyz      -0.183432  0.494684 -0.166830  0.000119 -0.000078  0.000000
  0Ne  2dx2y2    -0.000010 -0.000134  0.000011  0.553280 -0.008580 -0.000000
  0Ne  2dxy       0.385664  0.247584  0.310092  0.000061 -0.000006 -0.000000
  0Ne  1f0        0.000000 -0.000000 -0.000000 -0.000000 -0.000000  0.000000
  0Ne  1f+1       0.000000  0.000000  0.000000  0.000000  0.000000  0.000000
  0Ne  1f-1       0.000000  0.000000 -0.000000  0.000000  0.000000 -0.000000
  0Ne  1f+2      -0.000000 -0.000000  0.000000 -0.000000 -0.000000 -0.000000
  0Ne  1f-2       0.000000  0.000000 -0.000000 -0.000000 -0.000000  0.000000
  0Ne  1f+3       0.000000  0.000000  0.000000  0.000000  0.000000  0.000000
  0Ne  1f-3       0.000000 -0.000000 -0.000000  0.000000  0.000000  0.000000

MULLIKEN ATOMIC CHARGES
-----------------------
   0 Ne:    0.000000
Sum of atomic charges:    0.0000000

LOEWDIN ATOMIC CHARGES
----------------------
   0 Ne:    0.000000

E(0)                                       ...   -128.531816804
E(0)                                       ...   -128.531816804
E(CORR)(strong-pairs)                      ...     -0.258785878
E(CORR)(weak-pairs)                        ...     -0.000025783
E(CORR)(corrected)                         ...     -0.258811661
E(TOT)                                     ...   -128.790628465
E(CCSD(T))                                 ...   -128.794482031
FINAL SINGLE POINT ENERGY      -128.794482031478

DIPOLE MOMENT
-------------
                                X             Y             Z
Electronic contribution:     -0.00000      -0.00000      -0.00000
Nuclear contribution   :      0.00000       0.00000       0.00000
                        -----------------------------------------
Total Dipole Moment    :     -0.00000      -0.00000      -0.00000
                        -----------------------------------------
Magnitude (a.u.)       :      0.00000
Magnitude (Debye)      :      0.00000

Rotational constants in cm-1:     0.000000     0.000000     0.000000
Rotational constants in MHz :     0.000000     0.000000     0.000000

                             ****ORCA TERMINATED NORMALLY****
TOTAL RUN TIME: 0 days 0 hours 0 minutes 4 seconds 701 msec
