                         Program Version 4.2.1 -  RELEASE  -
|  1> ! UHF MP2 6-311G(2d,2p) Freq NoFrozenCore TightSCF Grid4 FinalGrid5 PrintBasis PrintMOs NBO
|  2> %maxcore 3000
|  3>
|  4> *xyz 0 2
|  5> Cl       0.000000000      0.000000000      0.000000000
|  6> *
|  7>
|  8> %pal
|  9>  nprocs 12
| 10> end
| 11>
| 12>                          ****END OF INPUT****

CARTESIAN COORDINATES (ANGSTROEM)
---------------------------------
  Cl     0.000000    0.000000    0.000000

 Total Charge           Charge          ....    0
 Multiplicity           Mult            ....    2
 Number of Electrons    NEL             ....   17
 Basis Dimension        Dim             ....   31

ORBITAL ENERGIES
----------------
                 SPIN UP ORBITALS
  NO   OCC          E(Eh)            E(eV)
   0   1.0000    -104.892442     -2854.2685
   1   1.0000     -10.616021      -288.8766
   2   1.0000      -8.102552      -220.4816
   3   1.0000      -8.077207      -219.7920
   4   1.0000      -8.077207      -219.7920
   5   1.0000      -1.138648       -30.9842
   6   1.0000      -0.582236       -15.8434
   7   1.0000      -0.505438       -13.7537
   8   1.0000      -0.505438       -13.7537
   9   0.0000       0.375331        10.2133
  10   0.0000       0.406779        11.0690
  11   0.0000       0.406779        11.0690
  12   0.0000       0.586313        15.9544
  13   0.0000       0.599867        16.3232

                 SPIN DOWN ORBITALS
  NO   OCC          E(Eh)            E(eV)
   0   1.0000    -104.881315     -2853.9657
   1   1.0000     -10.604474      -288.5624
   2   1.0000      -8.071144      -219.6270
   3   1.0000      -8.071144      -219.6270
   4   1.0000      -8.053601      -219.1496
   5   1.0000      -1.016891       -27.6710
   6   1.0000      -0.481022       -13.0893
   7   1.0000      -0.481022       -13.0893
   8   0.0000      -0.045890        -1.2487
   9   0.0000       0.412903        11.2357
  10   0.0000       0.412903        11.2357
  11   0.0000       0.448711        12.2100
  12   0.0000       0.653598        17.7853

------------------
MOLECULAR ORBITALS
------------------
                      0         1         2         3         4         5
                 -104.89244 -10.61602  -8.10255  -8.07721  -8.07721  -1.13865
                   1.00000   1.00000   1.00000   1.00000   1.00000   1.00000
                  --------  --------  --------  --------  --------  --------
  0Cl  1s        -0.411715  0.121998 -0.000000 -0.000000 -0.000000  0.037159
  0Cl  2s        -0.654659  0.331593 -0.000000 -0.000000 -0.000000  0.107434
  0Cl  3s        -0.012130 -0.512284  0.000000  0.000000  0.000000 -0.211628
  0Cl  4s         0.000915 -0.605572  0.000000  0.000000  0.000000 -0.430442
  0Cl  5s        -0.000172 -0.040912  0.000000 -0.000000  0.000000  0.666120
  0Cl  6s         0.000084  0.007146 -0.000000 -0.000000  0.000000  0.554442
  0Cl  1pz        0.000000  0.000000  0.021833  0.492546 -1.128551 -0.000000
  0Cl  1px        0.000000 -0.000000 -1.219740 -0.141206 -0.085253  0.000000
  0Cl  1py        0.000000  0.000000  0.163398 -1.119896 -0.485603 -0.000000
  0Cl  2pz        0.000000  0.000000  0.005806  0.130898 -0.299921 -0.000000
  0Cl  2px        0.000000 -0.000000 -0.324383 -0.037527 -0.022657  0.000000
  0Cl  2py        0.000000  0.000000  0.043455 -0.297621 -0.129053 -0.000000
  0Cl  3pz       -0.000000 -0.000000  0.000890  0.019469 -0.044608  0.000000
  0Cl  3px       -0.000000  0.000000 -0.049740 -0.005581 -0.003370 -0.000000
  0Cl  3py       -0.000000 -0.000000  0.006663 -0.044266 -0.019194  0.000000
  0Cl  4pz        0.000000  0.000000 -0.000035 -0.000736  0.001686  0.000000
  0Cl  4px        0.000000 -0.000000  0.001976  0.000211  0.000127 -0.000000
  0Cl  4py        0.000000  0.000000 -0.000265  0.001673  0.000726  0.000000
  0Cl  5pz       -0.000000 -0.000000  0.000012  0.000235 -0.000539  0.000000
  0Cl  5px       -0.000000  0.000000 -0.000657 -0.000067 -0.000041 -0.000000
  0Cl  5py       -0.000000 -0.000000  0.000088 -0.000535 -0.000232 -0.000000
  0Cl  1dz2       0.000001  0.000684  0.000000  0.000000 -0.000000 -0.007425
  0Cl  1dxz       0.000000  0.000042  0.000000 -0.000000  0.000000 -0.000453
  0Cl  1dyz      -0.000000 -0.000006 -0.000000 -0.000000  0.000000  0.000061
  0Cl  1dx2y2    -0.000001 -0.001144  0.000000  0.000000 -0.000000  0.012415
  0Cl  1dxy       0.000000  0.000312 -0.000000  0.000000  0.000000 -0.003387
  0Cl  2dz2      -0.000000 -0.000089 -0.000000 -0.000000 -0.000000 -0.015195
  0Cl  2dxz      -0.000000 -0.000005 -0.000000 -0.000000  0.000000 -0.000926
  0Cl  2dyz       0.000000  0.000001  0.000000  0.000000 -0.000000  0.000124
  0Cl  2dx2y2     0.000001  0.000149 -0.000000 -0.000000  0.000000  0.025406
  0Cl  2dxy      -0.000000 -0.000041  0.000000 -0.000000  0.000000 -0.006931
                      6         7         8         9        10        11
                  -0.58224  -0.50544  -0.50544   0.37533   0.40678   0.40678
                   1.00000   1.00000   1.00000   0.00000   0.00000   0.00000
                  --------  --------  --------  --------  --------  --------
  0Cl  1s         0.000000  0.000000  0.000000 -0.000000  0.000000 -0.000000
  0Cl  2s         0.000000  0.000000  0.000000 -0.000000  0.000000 -0.000000
  0Cl  3s        -0.000000 -0.000000 -0.000000  0.000000 -0.000000  0.000000
  0Cl  4s        -0.000000 -0.000000 -0.000000  0.000000 -0.000000  0.000000
  0Cl  5s         0.000000  0.000000  0.000000 -0.000000  0.000000 -0.000000
  0Cl  6s         0.000000  0.000000  0.000000  0.000000 -0.000000  0.000000
  0Cl  1pz        0.006222  0.302980 -0.158565  0.003201 -0.153558 -0.103946
  0Cl  1px       -0.347615  0.026384  0.037446 -0.178856 -0.016504  0.018564
  0Cl  1py        0.046567  0.156472  0.300718  0.023960 -0.102680  0.152467
  0Cl  2pz        0.001493  0.072313 -0.037845  0.000525 -0.024488 -0.016577
  0Cl  2px       -0.083382  0.006297  0.008937 -0.029325 -0.002632  0.002960
  0Cl  2py        0.011170  0.037345  0.071773  0.003928 -0.016375  0.024315
  0Cl  3pz       -0.004477 -0.220189  0.115236 -0.000867  0.037677  0.025504
  0Cl  3px        0.250108 -0.019175 -0.027214  0.048413  0.004049 -0.004555
  0Cl  3py       -0.033505 -0.113715 -0.218546 -0.006486  0.025194 -0.037410
  0Cl  4pz       -0.011379 -0.543342  0.284358 -0.016522  0.796321  0.539045
  0Cl  4px        0.635706 -0.047316 -0.067153  0.923045  0.085586 -0.096269
  0Cl  4py       -0.085160 -0.280605 -0.539286 -0.123652  0.532480 -0.790665
  0Cl  5pz       -0.004922 -0.280708  0.146909  0.022409 -1.040938 -0.704630
  0Cl  5px        0.274962 -0.024445 -0.034694 -1.251930 -0.111876  0.125842
  0Cl  5py       -0.036834 -0.144970 -0.278613  0.167710 -0.696050  1.033544
  0Cl  1dz2       0.000000 -0.000000 -0.000000  0.000000  0.000000 -0.000000
  0Cl  1dxz       0.000000  0.000000  0.000000  0.000000  0.000000 -0.000000
  0Cl  1dyz      -0.000000  0.000000  0.000000 -0.000000 -0.000000 -0.000000
  0Cl  1dx2y2     0.000000 -0.000000  0.000000  0.000000  0.000000 -0.000000
  0Cl  1dxy       0.000000 -0.000000  0.000000 -0.000000 -0.000000 -0.000000
  0Cl  2dz2       0.000000 -0.000000  0.000000  0.000000  0.000000 -0.000000
  0Cl  2dxz       0.000000  0.000000  0.000000  0.000000  0.000000 -0.000000
  0Cl  2dyz       0.000000  0.000000  0.000000 -0.000000 -0.000000  0.000000
  0Cl  2dx2y2     0.000000 -0.000000  0.000000  0.000000  0.000000 -0.000000
  0Cl  2dxy       0.000000 -0.000000  0.000000 -0.000000 -0.000000  0.000000
                     12        13        14        15        16        17
                   0.58631   0.59987   0.59987   0.64630   0.64630   0.74467
                   0.00000   0.00000   0.00000   0.00000   0.00000   0.00000
                  --------  --------  --------  --------  --------  --------
  0Cl  1s        -0.001561  0.000000 -0.000000 -0.000000 -0.000000 -0.034301
  0Cl  2s        -0.004682  0.000000 -0.000000 -0.000000 -0.000000 -0.094089
  0Cl  3s         0.010724  0.000000  0.000000  0.000000  0.000000  0.141739
  0Cl  4s         0.015392 -0.000000  0.000000  0.000000  0.000000  0.654841
  0Cl  5s        -0.030428  0.000000 -0.000000 -0.000000  0.000000 -2.124681
  0Cl  6s        -0.017381 -0.000000  0.000000  0.000000 -0.000000  1.736630
  0Cl  1pz       -0.000000 -0.000000 -0.000000 -0.000000  0.000000 -0.000000
  0Cl  1px        0.000000  0.000000 -0.000000 -0.000000  0.000000  0.000000
  0Cl  1py        0.000000  0.000000 -0.000000 -0.000000  0.000000 -0.000000
  0Cl  2pz       -0.000000 -0.000000 -0.000000 -0.000000  0.000000 -0.000000
  0Cl  2px        0.000000  0.000000 -0.000000 -0.000000  0.000000  0.000000
  0Cl  2py        0.000000  0.000000 -0.000000 -0.000000  0.000000 -0.000000
  0Cl  3pz        0.000000  0.000000  0.000000  0.000000  0.000000 -0.000000
  0Cl  3px       -0.000000  0.000000  0.000000  0.000000 -0.000000 -0.000000
  0Cl  3py       -0.000000 -0.000000  0.000000  0.000000  0.000000 -0.000000
  0Cl  4pz        0.000000 -0.000000 -0.000000 -0.000000 -0.000000  0.000000
  0Cl  4px        0.000000 -0.000000 -0.000000 -0.000000 -0.000000 -0.000000
  0Cl  4py        0.000000 -0.000000  0.000000  0.000000 -0.000000  0.000000
  0Cl  5pz       -0.000000  0.000000 -0.000000  0.000000  0.000000 -0.000000
  0Cl  5px       -0.000000  0.000000  0.000000  0.000000  0.000000  0.000000
  0Cl  5py       -0.000000  0.000000  0.000000  0.000000  0.000000 -0.000000
  0Cl  1dz2      -0.094963 -0.005244 -0.002534  0.042813  0.155396  0.010860
  0Cl  1dxz      -0.005788  0.169273  0.081299  0.024698 -0.003410  0.000662
  0Cl  1dyz       0.000775 -0.021200 -0.013946  0.177759 -0.049429 -0.000089
  0Cl  1dx2y2     0.158781 -0.018785  0.046331  0.024700  0.086378 -0.018158
  0Cl  1dxy      -0.043318 -0.080358  0.164267 -0.003438 -0.024475  0.004954
  0Cl  2dz2      -0.448469 -0.024862 -0.012014  0.207179  0.751980 -0.005249
  0Cl  2dxz      -0.027335  0.802594  0.385471  0.119515 -0.016500 -0.000320
  0Cl  2dyz       0.003662 -0.100517 -0.066123  0.860195 -0.239194  0.000043
  0Cl  2dx2y2     0.749855 -0.089068  0.219676  0.119525  0.417994  0.008777
  0Cl  2dxy      -0.204574 -0.381013  0.778859 -0.016638 -0.118436 -0.002394
                     18        19        20        21        22        23
                   2.37059   2.42612   2.42612   2.65284   2.66616   2.66616
                   0.00000   0.00000   0.00000   0.00000   0.00000   0.00000
                  --------  --------  --------  --------  --------  --------
  0Cl  1s        -0.000000 -0.000000 -0.000000 -0.000698  0.000000 -0.000000
  0Cl  2s        -0.000000 -0.000000  0.000000 -0.001759  0.000000  0.000000
  0Cl  3s        -0.000000  0.000000 -0.000000  0.001522 -0.000000 -0.000000
  0Cl  4s         0.000000 -0.000000  0.000000  0.017080 -0.000000  0.000000
  0Cl  5s        -0.000000  0.000000 -0.000000 -0.046342  0.000000 -0.000000
  0Cl  6s         0.000000 -0.000000  0.000000  0.029972 -0.000000  0.000000
  0Cl  1pz       -0.013909  0.773139  0.132252  0.000000  0.000000  0.000000
  0Cl  1px        0.777057  0.031158 -0.100344  0.000000 -0.000000  0.000000
  0Cl  1py       -0.104095  0.129281 -0.766726 -0.000000 -0.000000  0.000000
  0Cl  2pz       -0.004608  0.255981  0.043788  0.000000 -0.000000  0.000000
  0Cl  2px        0.257424  0.010316 -0.033223  0.000000 -0.000000  0.000000
  0Cl  2py       -0.034485  0.042804 -0.253857 -0.000000 -0.000000  0.000000
  0Cl  3pz        0.033816 -1.879275 -0.321466 -0.000000 -0.000000 -0.000000
  0Cl  3px       -1.889180 -0.075735  0.243907 -0.000000  0.000000 -0.000000
  0Cl  3py        0.253076 -0.314243  1.863686  0.000000  0.000000 -0.000000
  0Cl  4pz       -0.032139  1.779868  0.304462  0.000000  0.000000  0.000000
  0Cl  4px        1.795514  0.071729 -0.231005  0.000000 -0.000000  0.000000
  0Cl  4py       -0.240529  0.297621 -1.765104 -0.000000 -0.000000  0.000000
  0Cl  5pz        0.010366 -0.569249 -0.097375 -0.000000 -0.000000 -0.000000
  0Cl  5px       -0.579104 -0.022941  0.073882 -0.000000  0.000000 -0.000000
  0Cl  5py        0.077577 -0.095187  0.564527  0.000000  0.000000 -0.000000
  0Cl  1dz2       0.000000  0.000000  0.000000 -0.553672  0.033842 -0.003855
  0Cl  1dxz      -0.000000 -0.000000  0.000000 -0.033747 -1.091526  0.121695
  0Cl  1dyz      -0.000000 -0.000000 -0.000000  0.004521  0.143976 -0.036019
  0Cl  1dx2y2    -0.000000 -0.000000 -0.000000  0.925759  0.014171  0.292060
  0Cl  1dxy      -0.000000 -0.000000  0.000000 -0.252564  0.126178  1.062076
  0Cl  2dz2      -0.000000  0.000000 -0.000000  0.338174 -0.020642  0.002351
  0Cl  2dxz       0.000000  0.000000 -0.000000  0.020612  0.665769 -0.074227
  0Cl  2dyz       0.000000  0.000000  0.000000 -0.002761 -0.087817  0.021970
  0Cl  2dx2y2     0.000000  0.000000  0.000000 -0.565439 -0.008643 -0.178140
  0Cl  2dxy       0.000000  0.000000 -0.000000  0.154262 -0.076962 -0.647806
                     24        25        26        27        28        29
                   2.70841   2.70841   9.92334  26.12956  26.17455  26.17455
                   0.00000   0.00000   0.00000   0.00000   0.00000   0.00000
                  --------  --------  --------  --------  --------  --------
  0Cl  1s        -0.000000 -0.000000 -0.115947 -0.000000  0.000000  0.000000
  0Cl  2s        -0.000000 -0.000000 -0.481575 -0.000000  0.000000  0.000000
  0Cl  3s         0.000000  0.000000  2.618821  0.000000 -0.000000 -0.000000
  0Cl  4s         0.000000  0.000000 -2.997798 -0.000000  0.000000  0.000000
  0Cl  5s        -0.000000 -0.000000  1.463619  0.000000 -0.000000  0.000000
  0Cl  6s         0.000000  0.000000 -0.575031 -0.000000  0.000000 -0.000000
  0Cl  1pz        0.000000 -0.000000 -0.000000 -0.059510 -3.306245  0.567584
  0Cl  1px        0.000000 -0.000000 -0.000000  3.324628 -0.133510 -0.429075
  0Cl  1py        0.000000  0.000000 -0.000000 -0.445370 -0.554859 -3.278825
  0Cl  2pz        0.000000 -0.000000 -0.000000 -0.060315 -3.350730  0.575221
  0Cl  2px        0.000000 -0.000000 -0.000000  3.369579 -0.135307 -0.434848
  0Cl  2py        0.000000  0.000000 -0.000000 -0.451392 -0.562324 -3.322941
  0Cl  3pz       -0.000000  0.000000  0.000000  0.041003  2.277911 -0.391050
  0Cl  3px       -0.000000  0.000000  0.000000 -2.290681  0.091985  0.295621
  0Cl  3py       -0.000000 -0.000000  0.000000  0.306862  0.382282  2.259020
  0Cl  4pz        0.000000 -0.000000 -0.000000 -0.019046 -1.057603  0.181559
  0Cl  4px        0.000000 -0.000000 -0.000000  1.064036 -0.042707 -0.137253
  0Cl  4py        0.000000  0.000000 -0.000000 -0.142539 -0.177489 -1.048832
  0Cl  5pz       -0.000000  0.000000  0.000000  0.005059  0.280737 -0.048194
  0Cl  5px       -0.000000  0.000000  0.000000 -0.282612  0.011337  0.036433
  0Cl  5py       -0.000000 -0.000000  0.000000  0.037859  0.047114  0.278409
  0Cl  1dz2      -0.007707  0.960410 -0.000340 -0.000000  0.000000 -0.000000
  0Cl  1dxz       0.147112  0.020682 -0.000021  0.000000  0.000000 -0.000000
  0Cl  1dyz       1.099361  0.006210  0.000003 -0.000000  0.000000 -0.000000
  0Cl  1dx2y2     0.000884  0.535321  0.000569 -0.000000  0.000000 -0.000000
  0Cl  1dxy       0.020156 -0.145881 -0.000155  0.000000 -0.000000 -0.000000
  0Cl  2dz2       0.004679 -0.583103  0.000675  0.000000 -0.000000  0.000000
  0Cl  2dxz      -0.089318 -0.012557  0.000041 -0.000000 -0.000000  0.000000
  0Cl  2dyz      -0.667466 -0.003770 -0.000006  0.000000 -0.000000  0.000000
  0Cl  2dx2y2    -0.000536 -0.325015 -0.001129 -0.000000  0.000000  0.000000
  0Cl  2dxy      -0.012238  0.088570  0.000308 -0.000000  0.000000  0.000000
                     30
                 218.71511
                   0.00000
                  --------
  0Cl  1s         1.541315
  0Cl  2s        -1.911226
  0Cl  3s         1.419525
  0Cl  4s        -0.929937
  0Cl  5s         0.330585
  0Cl  6s        -0.126744
  0Cl  1pz        0.000000
  0Cl  1px        0.000000
  0Cl  1py       -0.000000
  0Cl  2pz        0.000000
  0Cl  2px        0.000000
  0Cl  2py       -0.000000
  0Cl  3pz       -0.000000
  0Cl  3px       -0.000000
  0Cl  3py        0.000000
  0Cl  4pz        0.000000
  0Cl  4px        0.000000
  0Cl  4py       -0.000000
  0Cl  5pz       -0.000000
  0Cl  5px       -0.000000
  0Cl  5py        0.000000
  0Cl  1dz2      -0.000006
  0Cl  1dxz      -0.000000
  0Cl  1dyz       0.000000
  0Cl  1dx2y2     0.000009
  0Cl  1dxy      -0.000003
  0Cl  2dz2       0.000006
  0Cl  2dxz       0.000000
  0Cl  2dyz      -0.000000
  0Cl  2dx2y2    -0.000010
  0Cl  2dxy       0.000003

                      0         1         2         3         4         5
                 -104.88131 -10.60447  -8.07114  -8.07114  -8.05360  -1.01689
                   1.00000   1.00000   1.00000   1.00000   1.00000   1.00000
                  --------  --------  --------  --------  --------  --------
  0Cl  1s        -0.411758 -0.121949 -0.000000 -0.000000  0.000000 -0.036876
  0Cl  2s        -0.654678 -0.331483 -0.000000 -0.000000  0.000000 -0.106925
  0Cl  3s        -0.011971  0.511348  0.000000  0.000000 -0.000000  0.213330
  0Cl  4s         0.000838  0.607480  0.000000  0.000000 -0.000000  0.420738
  0Cl  5s        -0.000178  0.039278  0.000000  0.000000 -0.000000 -0.647903
  0Cl  6s         0.000076 -0.007297 -0.000000  0.000000  0.000000 -0.568168
  0Cl  1pz        0.000000 -0.000000 -0.138130 -1.223662 -0.021802  0.000000
  0Cl  1px        0.000000  0.000000 -0.164926 -0.003174  1.218011  0.000000
  0Cl  1py       -0.000000  0.000000 -1.212694  0.139811 -0.163166  0.000000
  0Cl  2pz        0.000000 -0.000000 -0.036716 -0.325260 -0.005801  0.000000
  0Cl  2px        0.000000  0.000000 -0.043839 -0.000844  0.324088  0.000000
  0Cl  2py       -0.000000  0.000000 -0.322345  0.037163 -0.043415  0.000000
  0Cl  3pz       -0.000000  0.000000 -0.005469 -0.048446 -0.000963 -0.000000
  0Cl  3px       -0.000000  0.000000 -0.006530 -0.000126  0.053777 -0.000000
  0Cl  3py        0.000000  0.000000 -0.048012  0.005535 -0.007204 -0.000000
  0Cl  4pz        0.000000 -0.000000  0.000240  0.002128  0.000082 -0.000000
  0Cl  4px        0.000000 -0.000000  0.000287  0.000006 -0.004575 -0.000000
  0Cl  4py       -0.000000 -0.000000  0.002108 -0.000243  0.000613 -0.000000
  0Cl  5pz       -0.000000  0.000000 -0.000074 -0.000656 -0.000024 -0.000000
  0Cl  5px       -0.000000 -0.000000 -0.000088 -0.000002  0.001335 -0.000000
  0Cl  5py        0.000000  0.000000 -0.000650  0.000075 -0.000179  0.000000
  0Cl  1dz2       0.000008 -0.000289 -0.000000  0.000000 -0.000000 -0.007428
  0Cl  1dxz       0.000000 -0.000018 -0.000000 -0.000000  0.000000 -0.000453
  0Cl  1dyz      -0.000000  0.000002 -0.000000  0.000000  0.000000  0.000061
  0Cl  1dx2y2    -0.000014  0.000484  0.000000 -0.000000  0.000000  0.012420
  0Cl  1dxy       0.000004 -0.000132  0.000000 -0.000000 -0.000000 -0.003388
  0Cl  2dz2       0.000003  0.000348  0.000000  0.000000 -0.000000 -0.019035
  0Cl  2dxz       0.000000  0.000021 -0.000000  0.000000 -0.000000 -0.001160
  0Cl  2dyz      -0.000000 -0.000003  0.000000 -0.000000 -0.000000  0.000155
  0Cl  2dx2y2    -0.000005 -0.000582 -0.000000  0.000000  0.000000  0.031827
  0Cl  2dxy       0.000001  0.000159  0.000000  0.000000 -0.000000 -0.008683
                      6         7         8         9        10        11
                  -0.48102  -0.48102  -0.04589   0.41290   0.41290   0.44871
                   1.00000   1.00000   0.00000   0.00000   0.00000   0.00000
                  --------  --------  --------  --------  --------  --------
  0Cl  1s        -0.000000  0.000000  0.000000  0.000000  0.000000  0.000000
  0Cl  2s        -0.000000  0.000000  0.000000  0.000000  0.000000  0.000000
  0Cl  3s         0.000000 -0.000000 -0.000000 -0.000000 -0.000000 -0.000000
  0Cl  4s         0.000000 -0.000000 -0.000000 -0.000000 -0.000000 -0.000000
  0Cl  5s        -0.000000  0.000000  0.000000  0.000000  0.000000  0.000000
  0Cl  6s        -0.000000  0.000000  0.000000 -0.000000 -0.000000  0.000000
  0Cl  1pz       -0.310368 -0.134725 -0.005074 -0.111929  0.151284 -0.004154
  0Cl  1px       -0.023348  0.038846  0.283479 -0.022058 -0.012204  0.232081
  0Cl  1py       -0.132822  0.307985 -0.037975 -0.149704 -0.111312 -0.031090
  0Cl  2pz       -0.073887 -0.032073 -0.001234 -0.017768  0.024016 -0.000713
  0Cl  2px       -0.005558  0.009248  0.068934 -0.003502 -0.001937  0.039822
  0Cl  2py       -0.031620  0.073320 -0.009234 -0.023765 -0.017670 -0.005335
  0Cl  3pz        0.226086  0.098140  0.003520  0.026846 -0.036285  0.000958
  0Cl  3px        0.017008 -0.028298 -0.196643  0.005291  0.002927 -0.053503
  0Cl  3py        0.096754 -0.224351  0.026343  0.035906  0.026698  0.007167
  0Cl  4pz        0.551809  0.239530  0.007962  0.578776 -0.782274  0.019497
  0Cl  4px        0.041512 -0.069066 -0.444832  0.114060  0.063103 -1.089224
  0Cl  4py        0.236147 -0.547574  0.059590  0.774107  0.575585  0.145914
  0Cl  5pz        0.305659  0.132681  0.009654 -0.745687  1.007871 -0.020990
  0Cl  5px        0.022994 -0.038257 -0.539362 -0.146953 -0.081301  1.172643
  0Cl  5py        0.130807 -0.303313  0.072253 -0.997348 -0.741575 -0.157088
  0Cl  1dz2       0.000000  0.000000 -0.000000 -0.000000 -0.000000 -0.000000
  0Cl  1dxz       0.000000 -0.000000 -0.000000 -0.000000 -0.000000 -0.000000
  0Cl  1dyz      -0.000000 -0.000000 -0.000000  0.000000 -0.000000 -0.000000
  0Cl  1dx2y2     0.000000  0.000000 -0.000000 -0.000000 -0.000000 -0.000000
  0Cl  1dxy       0.000000 -0.000000 -0.000000  0.000000  0.000000 -0.000000
  0Cl  2dz2      -0.000000  0.000000  0.000000 -0.000000  0.000000  0.000000
  0Cl  2dxz       0.000000  0.000000 -0.000000 -0.000000 -0.000000 -0.000000
  0Cl  2dyz       0.000000 -0.000000  0.000000  0.000000 -0.000000 -0.000000
  0Cl  2dx2y2    -0.000000  0.000000 -0.000000 -0.000000  0.000000  0.000000
  0Cl  2dxy       0.000000 -0.000000 -0.000000 -0.000000  0.000000 -0.000000
                     12        13        14        15        16        17
                   0.65360   0.65360   0.68572   0.68572   0.69878   0.77390
                   0.00000   0.00000   0.00000   0.00000   0.00000   0.00000
                  --------  --------  --------  --------  --------  --------
  0Cl  1s         0.000000  0.000000  0.000000  0.000000  0.000591 -0.034571
  0Cl  2s         0.000000  0.000000  0.000000  0.000000  0.001251 -0.094819
  0Cl  3s         0.000000 -0.000000 -0.000000 -0.000000  0.001744  0.142771
  0Cl  4s        -0.000000  0.000000 -0.000000 -0.000000 -0.026978  0.659080
  0Cl  5s         0.000000 -0.000000  0.000000  0.000000  0.114422 -2.127940
  0Cl  6s        -0.000000  0.000000 -0.000000 -0.000000 -0.143466  1.727033
  0Cl  1pz        0.000000 -0.000000 -0.000000 -0.000000  0.000000  0.000000
  0Cl  1px        0.000000  0.000000 -0.000000 -0.000000 -0.000000  0.000000
  0Cl  1py       -0.000000 -0.000000 -0.000000  0.000000  0.000000 -0.000000
  0Cl  2pz        0.000000 -0.000000 -0.000000 -0.000000  0.000000  0.000000
  0Cl  2px       -0.000000  0.000000 -0.000000 -0.000000 -0.000000  0.000000
  0Cl  2py        0.000000 -0.000000 -0.000000  0.000000  0.000000 -0.000000
  0Cl  3pz       -0.000000  0.000000  0.000000  0.000000  0.000000 -0.000000
  0Cl  3px        0.000000 -0.000000  0.000000  0.000000  0.000000 -0.000000
  0Cl  3py       -0.000000  0.000000  0.000000  0.000000 -0.000000 -0.000000
  0Cl  4pz       -0.000000 -0.000000 -0.000000 -0.000000 -0.000000  0.000000
  0Cl  4px       -0.000000 -0.000000  0.000000  0.000000  0.000000  0.000000
  0Cl  4py        0.000000 -0.000000  0.000000 -0.000000 -0.000000  0.000000
  0Cl  5pz        0.000000  0.000000  0.000000  0.000000  0.000000 -0.000000
  0Cl  5px        0.000000  0.000000 -0.000000 -0.000000 -0.000000 -0.000000
  0Cl  5py       -0.000000  0.000000 -0.000000  0.000000  0.000000 -0.000000
  0Cl  1dz2      -0.002911 -0.160157 -0.004484  0.003201  0.088059  0.006916
  0Cl  1dxz       0.024499 -0.003698  0.144836 -0.102881  0.005367  0.000422
  0Cl  1dyz       0.183333 -0.002897 -0.017537  0.016395 -0.000719 -0.000056
  0Cl  1dx2y2    -0.000759 -0.089278 -0.024927 -0.040197 -0.147237 -0.011564
  0Cl  1dxy       0.003608  0.024295 -0.101204 -0.140319  0.040169  0.003155
  0Cl  2dz2      -0.014188 -0.780477 -0.022628  0.016155  0.451336  0.029901
  0Cl  2dxz       0.119390 -0.018023  0.730875 -0.519160  0.027510  0.001823
  0Cl  2dyz       0.893417 -0.014117 -0.088497  0.082730 -0.003685 -0.000244
  0Cl  2dx2y2    -0.003699 -0.435071 -0.125785 -0.202844 -0.754649 -0.049995
  0Cl  2dxy       0.017585  0.118394 -0.510696 -0.708079  0.205882  0.013640
                     18        19        20        21        22        23
                   2.43619   2.43619   2.45171   2.69613   2.70032   2.70032
                   0.00000   0.00000   0.00000   0.00000   0.00000   0.00000
                  --------  --------  --------  --------  --------  --------
  0Cl  1s         0.000000 -0.000000 -0.000000  0.000273 -0.000000 -0.000000
  0Cl  2s         0.000000  0.000000 -0.000000  0.000854 -0.000000  0.000000
  0Cl  3s         0.000000 -0.000000  0.000000 -0.002387  0.000000 -0.000000
  0Cl  4s        -0.000000  0.000000  0.000000 -0.000503 -0.000000  0.000000
  0Cl  5s         0.000000 -0.000000 -0.000000 -0.000451  0.000000 -0.000000
  0Cl  6s        -0.000000  0.000000  0.000000  0.006658 -0.000000  0.000000
  0Cl  1pz        0.775664  0.121051 -0.014182  0.000000  0.000000  0.000000
  0Cl  1px        0.029714 -0.100876  0.792326  0.000000 -0.000000  0.000000
  0Cl  1py        0.118171 -0.769203 -0.106141 -0.000000 -0.000000 -0.000000
  0Cl  2pz        0.256745  0.040068 -0.004681  0.000000  0.000000  0.000000
  0Cl  2px        0.009836 -0.033390  0.261513  0.000000 -0.000000  0.000000
  0Cl  2py        0.039115 -0.254607 -0.035033 -0.000000 -0.000000 -0.000000
  0Cl  3pz       -1.884005 -0.294019  0.033933 -0.000000 -0.000000 -0.000000
  0Cl  3px       -0.072173  0.245018 -1.895749 -0.000000  0.000000 -0.000000
  0Cl  3py       -0.287024  1.868311  0.253956  0.000000  0.000000  0.000000
  0Cl  4pz        1.782030  0.278105 -0.031504  0.000000  0.000000  0.000000
  0Cl  4px        0.068267 -0.231756  1.760032  0.000000 -0.000000  0.000000
  0Cl  4py        0.271488 -1.767186 -0.235776 -0.000000 -0.000000 -0.000000
  0Cl  5pz       -0.568543 -0.088727  0.010006  0.000000 -0.000000 -0.000000
  0Cl  5px       -0.021780  0.073940 -0.559000 -0.000000  0.000000 -0.000000
  0Cl  5py       -0.086616  0.563807  0.074884  0.000000 -0.000000  0.000000
  0Cl  1dz2       0.000000  0.000000 -0.000000 -0.554876  0.021602  0.026402
  0Cl  1dxz       0.000000  0.000000 -0.000000 -0.033821 -0.694517 -0.852987
  0Cl  1dyz      -0.000000  0.000000 -0.000000  0.004531  0.108420  0.101682
  0Cl  1dx2y2     0.000000 -0.000000 -0.000000  0.927771 -0.238209  0.170348
  0Cl  1dxy       0.000000  0.000000 -0.000000 -0.253112 -0.825759  0.682317
  0Cl  2dz2      -0.000000 -0.000000  0.000000  0.332843 -0.012994 -0.015882
  0Cl  2dxz      -0.000000 -0.000000  0.000000  0.020287  0.417770  0.513094
  0Cl  2dyz       0.000000 -0.000000  0.000000 -0.002718 -0.065218 -0.061164
  0Cl  2dx2y2    -0.000000  0.000000  0.000000 -0.556524  0.143289 -0.102469
  0Cl  2dxy      -0.000000 -0.000000  0.000000  0.151830  0.496716 -0.410432
                     24        25        26        27        28        29
                   2.71290   2.71290   9.94156  26.15364  26.17965  26.17965
                   0.00000   0.00000   0.00000   0.00000   0.00000   0.00000
                  --------  --------  --------  --------  --------  --------
  0Cl  1s        -0.000000  0.000000  0.115945  0.000000 -0.000000  0.000000
  0Cl  2s        -0.000000  0.000000  0.481588  0.000000 -0.000000  0.000000
  0Cl  3s         0.000000 -0.000000 -2.618835 -0.000000  0.000000 -0.000000
  0Cl  4s         0.000000 -0.000000  2.997826  0.000000  0.000000  0.000000
  0Cl  5s         0.000000  0.000000 -1.463685 -0.000000 -0.000000 -0.000000
  0Cl  6s        -0.000000  0.000000  0.573642  0.000000  0.000000  0.000000
  0Cl  1pz        0.000000  0.000000 -0.000000  0.059507  3.314283 -0.518743
  0Cl  1px       -0.000000  0.000000  0.000000 -3.324456  0.127166  0.431001
  0Cl  1py        0.000000  0.000000  0.000000  0.445347  0.506424  3.286678
  0Cl  2pz        0.000000  0.000000 -0.000000  0.060313  3.358855 -0.525719
  0Cl  2px       -0.000000  0.000000  0.000000 -3.369511  0.128876  0.436797
  0Cl  2py        0.000000  0.000000  0.000000  0.451383  0.513235  3.330879
  0Cl  3pz       -0.000000 -0.000000  0.000000 -0.040995 -2.283461  0.357401
  0Cl  3px        0.000000 -0.000000 -0.000000  2.290264 -0.087614 -0.296949
  0Cl  3py       -0.000000 -0.000000 -0.000000 -0.306806 -0.348914 -2.264442
  0Cl  4pz        0.000000  0.000000 -0.000000  0.019029  1.059994 -0.165908
  0Cl  4px       -0.000000  0.000000  0.000000 -1.063091  0.040671  0.137845
  0Cl  4py        0.000000  0.000000  0.000000  0.142413  0.161968  1.051165
  0Cl  5pz       -0.000000  0.000000  0.000000 -0.005053 -0.281353  0.044037
  0Cl  5px        0.000000 -0.000000 -0.000000  0.282273 -0.010795 -0.036588
  0Cl  5py       -0.000000 -0.000000 -0.000000 -0.037814 -0.042991 -0.279010
  0Cl  1dz2      -0.767078  0.578239  0.000280 -0.000000 -0.000000 -0.000000
  0Cl  1dxz       0.073092  0.129364  0.000017  0.000000  0.000000  0.000000
  0Cl  1dyz       0.663972  0.876468 -0.000002  0.000000  0.000000 -0.000000
  0Cl  1dx2y2    -0.424408  0.326415 -0.000468  0.000000  0.000000  0.000000
  0Cl  1dxy       0.128067 -0.072761  0.000128 -0.000000 -0.000000  0.000000
  0Cl  2dz2       0.464992 -0.350521  0.000145  0.000000  0.000000  0.000000
  0Cl  2dxz      -0.044307 -0.078419  0.000009 -0.000000 -0.000000 -0.000000
  0Cl  2dyz      -0.402491 -0.531303 -0.000001 -0.000000 -0.000000  0.000000
  0Cl  2dx2y2     0.257270 -0.197868 -0.000242  0.000000 -0.000000 -0.000000
  0Cl  2dxy      -0.077632  0.044107  0.000066  0.000000  0.000000  0.000000
                     30
                 218.72116
                   0.00000
                  --------
  0Cl  1s         1.541309
  0Cl  2s        -1.911233
  0Cl  3s         1.419519
  0Cl  4s        -0.929942
  0Cl  5s         0.330579
  0Cl  6s        -0.126734
  0Cl  1pz        0.000000
  0Cl  1px        0.000000
  0Cl  1py       -0.000000
  0Cl  2pz        0.000000
  0Cl  2px        0.000000
  0Cl  2py       -0.000000
  0Cl  3pz       -0.000000
  0Cl  3px       -0.000000
  0Cl  3py        0.000000
  0Cl  4pz        0.000000
  0Cl  4px        0.000000
  0Cl  4py       -0.000000
  0Cl  5pz       -0.000000
  0Cl  5px       -0.000000
  0Cl  5py        0.000000
  0Cl  1dz2       0.000000
  0Cl  1dxz       0.000000
  0Cl  1dyz      -0.000000
  0Cl  1dx2y2    -0.000000
  0Cl  1dxy       0.000000
  0Cl  2dz2       0.000001
  0Cl  2dxz       0.000000
  0Cl  2dyz      -0.000000
  0Cl  2dx2y2    -0.000001
  0Cl  2dxy       0.000000

MULLIKEN ATOMIC CHARGES AND SPIN POPULATIONS
--------------------------------------------
   0 Cl:    0.000000    1.000000
Sum of atomic charges         :    0.0000000

LOEWDIN ATOMIC CHARGES AND SPIN POPULATIONS
-------------------------------------------
   0 Cl:    0.000000    1.000000

MP2 TOTAL ENERGY:     -459.663210124 Eh
FINAL SINGLE POINT ENERGY      -459.663210123911

DIPOLE MOMENT
-------------
                                X             Y             Z
Electronic contribution:     -0.00000      -0.00000       0.00000
Nuclear contribution   :      0.00000       0.00000       0.00000
                        -----------------------------------------
Total Dipole Moment    :     -0.00000      -0.00000       0.00000
                        -----------------------------------------
Magnitude (a.u.)       :      0.00000
Magnitude (Debye)      :      0.00000

VIBRATIONAL FREQUENCIES
-----------------------

Scaling factor for frequencies =  1.000000000  (already applied!)

   0:         0.00 cm**-1
   1:         0.00 cm**-1
   2:         0.00 cm**-1

IR SPECTRUM
-----------

 Mode    freq (cm**-1)   T**2         TX         TY         TZ
-------------------------------------------------------------------

--------------------------
THERMOCHEMISTRY AT 298.15K
--------------------------

Temperature         ... 298.15 K
Pressure            ... 1.00 atm
Total Mass          ... 35.45 AMU
The molecule is recognized as being linear

Throughout the following assumptions are being made:
  (1) The electronic state is orbitally nondegenerate
      but the spin degeneracy is treated
  (2) There are no thermally accessible electronically excited states
  (3) Hindered rotations indicated by low frequency modes are not
      treated as such but are treated as vibrations and this may
      cause some error
  (4) All equations used are the standard statistical mechanics
      equations for an ideal gas
  (5) All vibrations are strictly harmonic

freq.       0.00  E(vib)   ...       0.59
freq.       0.00  E(vib)   ...       0.59
freq.       0.00  E(vib)   ...       0.59

------------
INNER ENERGY
------------

The inner energy is: U= E(el) + E(ZPE) + E(vib) + E(rot) + E(trans)
    E(el)   - is the total energy from the electronic structure calculation
              = E(kin-el) + E(nuc-el) + E(el-el) + E(nuc-nuc)
    E(ZPE)  - the the zero temperature vibrational energy from the frequency calculation
    E(vib)  - the the finite temperature correction to E(ZPE) due to population
              of excited vibrational states
    E(rot)  - is the rotational thermal energy
    E(trans)- is the translational thermal energy

Summary of contributions to the inner energy U:
Electronic energy                ...   -459.66321012 Eh
Zero point energy                ...      0.00000003 Eh       0.00 kcal/mol
Thermal vibrational correction   ...      0.00283260 Eh       1.78 kcal/mol
Thermal rotational correction    ...      0.00000000 Eh       0.00 kcal/mol
Thermal translational correction ...      0.00141627 Eh       0.89 kcal/mol
-----------------------------------------------------------------------
Total thermal energy                   -459.65896123 Eh

Summary of corrections to the electronic energy:
(perhaps to be used in another calculation)
Total thermal correction                  0.00424887 Eh       2.67 kcal/mol
Non-thermal (ZPE) correction              0.00000003 Eh       0.00 kcal/mol
-----------------------------------------------------------------------
Total correction                          0.00424890 Eh       2.67 kcal/mol

--------
ENTHALPY
--------

The enthalpy is H = U + kB*T
                kB is Boltzmann's constant
Total free energy                 ...   -459.65896123 Eh
Thermal Enthalpy correction       ...      0.00094421 Eh       0.59 kcal/mol
-----------------------------------------------------------------------
Total Enthalpy                    ...   -459.65801702 Eh

Note: Rotational entropy computed according to Herzberg
Infrared and Raman Spectra, Chapter V,1, Van Nostrand Reinhold, 1945
Point Group:  Kh, Symmetry Number:   1
Rotational constants in cm-1:     0.000000     0.000000     0.000000

Vibrational entropy computed according to the QRRHO of S. Grimme
Chem.Eur.J. 2012 18 9955

-------
ENTROPY
-------

The entropy contributions are T*S = T*(S(el)+S(vib)+S(rot)+S(trans))
     S(el)   - electronic entropy
     S(vib)  - vibrational entropy
     S(rot)  - rotational entropy
     S(trans)- translational entropy
The entropies will be listed as mutliplied by the temperature to get
units of energy

Electronic entropy                ...      0.00065446 Eh      0.41 kcal/mol
Vibrational entropy               ...            -inf Eh      -inf kcal/mol
Rotational entropy                ...      0.00000000 Eh      0.00 kcal/mol
Translational entropy             ...      0.01740262 Eh     10.92 kcal/mol
-----------------------------------------------------------------------
Final entropy term                ...            -inf Eh      -inf kcal/mol

In case the symmetry of your molecule has not been determined correctly
or in case you have a reason to use a different symmetry number we print
out the resulting rotational entropy values for sn=1,12 :
 --------------------------------------------------------
|  sn= 1 | S(rot)=             -inf Eh      -inf kcal/mol|
|  sn= 2 | S(rot)=             -inf Eh      -inf kcal/mol|
|  sn= 3 | S(rot)=             -inf Eh      -inf kcal/mol|
|  sn= 4 | S(rot)=             -inf Eh      -inf kcal/mol|
|  sn= 5 | S(rot)=             -inf Eh      -inf kcal/mol|
|  sn= 6 | S(rot)=             -inf Eh      -inf kcal/mol|
|  sn= 7 | S(rot)=             -inf Eh      -inf kcal/mol|
|  sn= 8 | S(rot)=             -inf Eh      -inf kcal/mol|
|  sn= 9 | S(rot)=             -inf Eh      -inf kcal/mol|
|  sn=10 | S(rot)=             -inf Eh      -inf kcal/mol|
|  sn=11 | S(rot)=             -inf Eh      -inf kcal/mol|
|  sn=12 | S(rot)=             -inf Eh      -inf kcal/mol|
 --------------------------------------------------------

-------------------
GIBBS FREE ENERGY
-------------------

The Gibbs free energy is G = H - T*S

Total enthalpy                    ...   -459.65801702 Eh
Total entropy correction          ...             inf Eh       inf kcal/mol
-----------------------------------------------------------------------
Final Gibbs free energy         ...             inf Eh

For completeness - the Gibbs free energy minus the electronic energy
G-E(el)                           ...             inf Eh       inf kcal/mol

                             ****ORCA TERMINATED NORMALLY****
TOTAL RUN TIME: 0 days 0 hours 0 minutes 20 seconds 705 msec
