                         Program Version 4.2.1 -  RELEASE  -
|  1> ! DLPNO-CCSD(T) cc-pVTZ RIJCOSX AutoAux TightSCF Grid4 FinalGrid5 PrintBasis PrintMOs
|  2> %maxcore 1150
|  3>
|  4> * xyzfile 0 1 init.xyz
|  5>
|  6> %cpcm
|  7>  smd true
|  8>  smdsolvent "water"
|  9> end
| 10>
| 11>                          ****END OF INPUT****

CARTESIAN COORDINATES (ANGSTROEM)
---------------------------------
  He     0.000000    0.000000    0.000000

 Total Charge           Charge          ....    0
 Multiplicity           Mult            ....    1
 Number of Electrons    NEL             ....    2
 Basis Dimension        Dim             ....   14

ORBITAL ENERGIES
----------------

  NO   OCC          E(Eh)            E(eV)
   0   2.0000      -0.916447       -24.9378
   1   0.0000       0.637785        17.3550
   2   0.0000       1.630850        44.3777
   3   0.0000       1.630850        44.3777
   4   0.0000       1.630850        44.3777
   5   0.0000       4.609731       125.4371

------------------
MOLECULAR ORBITALS
------------------
                      0         1         2         3         4         5
                  -0.91645   0.63778   1.63085   1.63085   1.63085   4.60973
                   2.00000   0.00000   0.00000   0.00000   0.00000   0.00000
                  --------  --------  --------  --------  --------  --------
  0He  1s        -0.354800 -0.160505  0.000000  0.000000  0.000000  1.491564
  0He  2s        -0.478055 -1.156163 -0.000000  0.000000 -0.000000 -1.953200
  0He  3s        -0.307748  1.532244  0.000000 -0.000000  0.000000  0.849465
  0He  1pz        0.000000 -0.000000 -0.039225 -0.060496 -0.033443 -0.000000
  0He  1px       -0.000000  0.000000 -0.019269  0.046498 -0.061510  0.000000
  0He  1py        0.000000 -0.000000  0.066385 -0.022249 -0.037615  0.000000
  0He  2pz        0.000000  0.000000  0.514864  0.794067  0.438976  0.000000
  0He  2px        0.000000 -0.000000  0.252923 -0.610327  0.807378 -0.000000
  0He  2py       -0.000000  0.000000 -0.871363  0.292038  0.493729 -0.000000
  0He  1dz2      -0.000000  0.000000 -0.000000 -0.000000  0.000000  0.000000
  0He  1dxz      -0.000000  0.000000  0.000000  0.000000  0.000000  0.000000
  0He  1dyz      -0.000000 -0.000000 -0.000000  0.000000 -0.000000 -0.000000
  0He  1dx2y2     0.000000 -0.000000  0.000000  0.000000  0.000000 -0.000000
  0He  1dxy       0.000000  0.000000 -0.000000  0.000000 -0.000000  0.000000
                      6         7         8         9        10        11
                   6.43858   6.43858   6.43858   6.43858   6.43858   8.00486
                   0.00000   0.00000   0.00000   0.00000   0.00000   0.00000
                  --------  --------  --------  --------  --------  --------
  0He  1s         0.000000 -0.000000 -0.000000 -0.000000  0.000000 -0.000000
  0He  2s        -0.000000  0.000000  0.000000  0.000000 -0.000000  0.000000
  0He  3s         0.000000 -0.000000 -0.000000 -0.000000  0.000000 -0.000000
  0He  1pz        0.000000  0.000000 -0.000000  0.000000  0.000000 -0.190017
  0He  1px       -0.000000 -0.000000  0.000000 -0.000000 -0.000000 -0.699653
  0He  1py        0.000000 -0.000000 -0.000000 -0.000000 -0.000000  0.975282
  0He  2pz       -0.000000  0.000000  0.000000  0.000000 -0.000000  0.098245
  0He  2px        0.000000 -0.000000 -0.000000  0.000000  0.000000  0.361745
  0He  2py       -0.000000  0.000000 -0.000000 -0.000000 -0.000000 -0.504255
  0He  1dz2      -0.036180 -0.696919  0.452252  0.042316 -0.553780  0.000000
  0He  1dxz       0.785747  0.229569 -0.179898 -0.210443 -0.503239 -0.000000
  0He  1dyz      -0.200052 -0.387435 -0.872945  0.071202 -0.206813  0.000000
  0He  1dx2y2     0.518758 -0.557644 -0.032757 -0.149295  0.629731 -0.000000
  0He  1dxy       0.268629  0.022996  0.000280  0.962582  0.027293 -0.000000
                     12        13
                   8.00486   8.00486
                   0.00000   0.00000
                  --------  --------
  0He  1s         0.000000 -0.000000
  0He  2s        -0.000000  0.000000
  0He  3s         0.000000 -0.000000
  0He  1pz        1.101446  0.476977
  0He  1px       -0.494030  0.862100
  0He  1py       -0.139812  0.711388
  0He  2pz       -0.569486 -0.246614
  0He  2px        0.255431 -0.445736
  0He  2py        0.072288 -0.367812
  0He  1dz2       0.000000 -0.000000
  0He  1dxz      -0.000000 -0.000000
  0He  1dyz      -0.000000  0.000000
  0He  1dx2y2    -0.000000 -0.000000
  0He  1dxy      -0.000000  0.000000

MULLIKEN ATOMIC CHARGES
-----------------------
   0 He:   -0.000000
Sum of atomic charges:   -0.0000000

LOEWDIN ATOMIC CHARGES
----------------------
   0 He:   -0.000000

E(0)                                       ...     -2.861155235
E(0)                                       ...     -2.861155235
E(CORR)(strong-pairs)                      ...     -0.037779152
E(CORR)(weak-pairs)                        ...     -0.000000000
E(CORR)(corrected)                         ...     -0.037779152
E(TOT)                                     ...     -2.898934387
E(CCSD(T))                                 ...     -2.898934387
FINAL SINGLE POINT ENERGY        -2.898934386647

DIPOLE MOMENT
-------------
                                X             Y             Z
Electronic contribution:      0.00000       0.00000       0.00000
Nuclear contribution   :      0.00000       0.00000       0.00000
                        -----------------------------------------
Total Dipole Moment    :      0.00000       0.00000       0.00000
                        -----------------------------------------
Magnitude (a.u.)       :      0.00000
Magnitude (Debye)      :      0.00000

Rotational constants in cm-1:     0.000000     0.000000     0.000000
Rotational constants in MHz :     0.000000     0.000000     0.000000

                             ****ORCA TERMINATED NORMALLY****
TOTAL RUN TIME: 0 days 0 hours 0 minutes 2 seconds 953 msec
