                         Program Version 4.2.1 -  RELEASE  -
|  1> ! DLPNO-CCSD(T) cc-pVTZ RIJCOSX AutoAux TightSCF Grid4 FinalGrid5 PrintBasis PrintMOs
|  2> %maxcore 1150
|  3>
|  4> * xyzfile 0 1 init.xyz
|  5>
|  6>                          ****END OF INPUT****

CARTESIAN COORDINATES (ANGSTROEM)
---------------------------------
  Ne     0.000000    0.000000    0.000000

 Total Charge           Charge          ....    0
 Multiplicity           Mult            ....    1
 Number of Electrons    NEL             ....   10
 Basis Dimension        Dim             ....   30

ORBITAL ENERGIES
----------------

  NO   OCC          E(Eh)            E(eV)
   0   2.0000     -32.769735      -891.7098
   1   2.0000      -1.927167       -52.4409
   2   2.0000      -0.845439       -23.0056
   3   2.0000      -0.845439       -23.0056
   4   2.0000      -0.845439       -23.0056
   5   0.0000       1.098751        29.8985
   6   0.0000       1.098751        29.8985
   7   0.0000       1.098751        29.8985
   8   0.0000       1.417637        38.5759
   9   0.0000       3.104552        84.4791

------------------
MOLECULAR ORBITALS
------------------
                      0         1         2         3         4         5
                 -32.76973  -1.92717  -0.84544  -0.84544  -0.84544   1.09875
                   2.00000   2.00000   2.00000   2.00000   2.00000   0.00000
                  --------  --------  --------  --------  --------  --------
  0Ne  1s         0.975720  0.000012  0.000000 -0.000000 -0.000000  0.000000
  0Ne  2s         0.000026 -0.587977 -0.000000 -0.000000 -0.000000  0.000000
  0Ne  3s         0.043878 -0.177386 -0.000000 -0.000000 -0.000000 -0.000000
  0Ne  4s         0.002365 -0.365093 -0.000000  0.000000 -0.000000 -0.000000
  0Ne  1pz        0.000000  0.000000 -0.066380  0.291325 -0.273128  0.041501
  0Ne  1px       -0.000000 -0.000000  0.341234  0.185201  0.114609 -0.215302
  0Ne  1py        0.000000 -0.000000 -0.207433  0.211436  0.275937  0.129890
  0Ne  2pz        0.000000  0.000000 -0.079564  0.349190 -0.327378  0.114517
  0Ne  2px       -0.000000 -0.000000  0.409012  0.221987  0.137374 -0.594106
  0Ne  2py        0.000000 -0.000000 -0.248635  0.253433  0.330746  0.358419
  0Ne  3pz        0.000000 -0.000000 -0.054538  0.239356 -0.224405 -0.192839
  0Ne  3px       -0.000000 -0.000000  0.280362  0.152164  0.094164  1.000435
  0Ne  3py        0.000000 -0.000000 -0.170430  0.173719  0.226713 -0.603554
  0Ne  1dz2      -0.000000  0.000000  0.000000 -0.000000  0.000000 -0.000000
  0Ne  1dxz       0.000000  0.000000 -0.000000  0.000000 -0.000000  0.000000
  0Ne  1dyz      -0.000000 -0.000000 -0.000000 -0.000000 -0.000000  0.000000
  0Ne  1dx2y2    -0.000000 -0.000000 -0.000000  0.000000 -0.000000 -0.000000
  0Ne  1dxy      -0.000000 -0.000000  0.000000 -0.000000  0.000000  0.000000
  0Ne  2dz2      -0.000000  0.000000  0.000000  0.000000 -0.000000 -0.000000
  0Ne  2dxz      -0.000000  0.000000  0.000000 -0.000000  0.000000 -0.000000
  0Ne  2dyz      -0.000000  0.000000  0.000000 -0.000000 -0.000000  0.000000
  0Ne  2dx2y2     0.000000  0.000000  0.000000  0.000000 -0.000000  0.000000
  0Ne  2dxy       0.000000  0.000000  0.000000 -0.000000 -0.000000  0.000000
  0Ne  1f0        0.000000 -0.000000  0.000000 -0.000000  0.000000 -0.000000
  0Ne  1f+1      -0.000000 -0.000000  0.000000  0.000000  0.000000 -0.000000
  0Ne  1f-1      -0.000000  0.000000 -0.000000  0.000000  0.000000  0.000000
  0Ne  1f+2       0.000000  0.000000  0.000000  0.000000  0.000000  0.000000
  0Ne  1f-2      -0.000000 -0.000000  0.000000  0.000000  0.000000 -0.000000
  0Ne  1f+3       0.000000  0.000000  0.000000  0.000000  0.000000 -0.000000
  0Ne  1f-3       0.000000 -0.000000  0.000000 -0.000000 -0.000000 -0.000000
                      6         7         8         9        10        11
                   1.09875   1.09875   1.41764   3.10455   3.10455   3.10455
                   0.00000   0.00000   0.00000   0.00000   0.00000   0.00000
                  --------  --------  --------  --------  --------  --------
  0Ne  1s         0.000000 -0.000000  0.509806 -0.000000  0.000000  0.000000
  0Ne  2s         0.000000 -0.000000  1.396915 -0.000000  0.000000 -0.000000
  0Ne  3s        -0.000000  0.000000  0.245656  0.000000 -0.000000 -0.000000
  0Ne  4s        -0.000000  0.000000 -1.653173 -0.000000  0.000000  0.000000
  0Ne  1pz        0.162810  0.191623 -0.000000  0.000000  0.000000 -0.000000
  0Ne  1px        0.123334 -0.058160 -0.000000 -0.000000 -0.000000  0.000000
  0Ne  1py        0.152416 -0.157629 -0.000000 -0.000000  0.000000  0.000000
  0Ne  2pz        0.449259  0.528765 -0.000000 -0.000000 -0.000000  0.000000
  0Ne  2px        0.340327 -0.160487  0.000000  0.000000 -0.000000 -0.000000
  0Ne  2py        0.420576 -0.434962 -0.000000  0.000000  0.000000 -0.000000
  0Ne  3pz       -0.756522 -0.890405  0.000000 -0.000000  0.000000 -0.000000
  0Ne  3px       -0.573088  0.270248  0.000000 -0.000000  0.000000  0.000000
  0Ne  3py       -0.708222  0.732447  0.000000  0.000000 -0.000000  0.000000
  0Ne  1dz2      -0.000000  0.000000 -0.000000  0.000000  0.000000 -0.000000
  0Ne  1dxz      -0.000000 -0.000000 -0.000000 -0.017353 -0.007644 -0.022936
  0Ne  1dyz      -0.000000  0.000000  0.000000  0.018458  0.014044 -0.018645
  0Ne  1dx2y2    -0.000000  0.000000  0.000000  0.000003 -0.000004 -0.000001
  0Ne  1dxy       0.000000  0.000000 -0.000000 -0.015613  0.025099  0.003448
  0Ne  2dz2      -0.000000  0.000000 -0.000000 -0.000017 -0.000013  0.000011
  0Ne  2dxz      -0.000000  0.000000 -0.000000  0.591610  0.260600  0.781964
  0Ne  2dyz       0.000000 -0.000000  0.000000 -0.629314 -0.478801  0.635687
  0Ne  2dx2y2     0.000000 -0.000000  0.000000 -0.000098  0.000142  0.000031
  0Ne  2dxy      -0.000000  0.000000 -0.000000  0.532302 -0.855699 -0.117550
  0Ne  1f0       -0.000000 -0.000000  0.000000  0.000000 -0.000000  0.000000
  0Ne  1f+1       0.000000 -0.000000  0.000000  0.000000 -0.000000  0.000000
  0Ne  1f-1       0.000000 -0.000000  0.000000  0.000000  0.000000 -0.000000
  0Ne  1f+2       0.000000 -0.000000 -0.000000  0.000000  0.000000  0.000000
  0Ne  1f-2      -0.000000 -0.000000  0.000000  0.000000 -0.000000  0.000000
  0Ne  1f+3       0.000000 -0.000000  0.000000  0.000000 -0.000000 -0.000000
  0Ne  1f-3      -0.000000  0.000000  0.000000 -0.000000  0.000000  0.000000
                     12        13        14        15        16        17
                   3.10455   3.10455   6.15583   6.15583   6.15583   9.64739
                   0.00000   0.00000   0.00000   0.00000   0.00000   0.00000
                  --------  --------  --------  --------  --------  --------
  0Ne  1s         0.000000  0.000000 -0.000000  0.000000 -0.000000 -0.000000
  0Ne  2s        -0.000000  0.000000 -0.000000  0.000000 -0.000000 -0.000000
  0Ne  3s        -0.000000 -0.000000  0.000000 -0.000000  0.000000  0.000000
  0Ne  4s         0.000000 -0.000000  0.000000 -0.000000  0.000000 -0.000000
  0Ne  1pz        0.000000 -0.000000 -0.196367  0.903987  0.777430 -0.000000
  0Ne  1px       -0.000000 -0.000000  1.018310  0.536992 -0.367199  0.000000
  0Ne  1py        0.000000  0.000000 -0.620190  0.595481 -0.849069 -0.000000
  0Ne  2pz        0.000000 -0.000000  0.229483 -1.056438 -0.908538  0.000000
  0Ne  2px        0.000000  0.000000 -1.190040 -0.627552  0.429125 -0.000000
  0Ne  2py       -0.000000 -0.000000  0.724781 -0.695904  0.992258  0.000000
  0Ne  3pz       -0.000000  0.000000 -0.092167  0.424294  0.364894 -0.000000
  0Ne  3px       -0.000000  0.000000  0.477952  0.252042 -0.172348  0.000000
  0Ne  3py        0.000000  0.000000 -0.291092  0.279494 -0.398518 -0.000000
  0Ne  1dz2       0.018389  0.023398  0.000000 -0.000000  0.000000 -0.000000
  0Ne  1dxz       0.000000  0.000000 -0.000000 -0.000000 -0.000000 -0.000000
  0Ne  1dyz      -0.000000 -0.000001  0.000000  0.000000  0.000000 -0.000000
  0Ne  1dx2y2    -0.023398  0.018389 -0.000000  0.000000  0.000000  0.000000
  0Ne  1dxy      -0.000004  0.000003 -0.000000  0.000000  0.000000 -0.000000
  0Ne  2dz2      -0.626929 -0.797711 -0.000000 -0.000000 -0.000000  0.000000
  0Ne  2dxz      -0.000005 -0.000002  0.000000  0.000000  0.000000  0.000000
  0Ne  2dyz       0.000004  0.000027 -0.000000 -0.000000  0.000000  0.000000
  0Ne  2dx2y2     0.797711 -0.626929  0.000000 -0.000000  0.000000  0.000000
  0Ne  2dxy       0.000138 -0.000107  0.000000 -0.000000 -0.000000  0.000000
  0Ne  1f0        0.000000  0.000000  0.000000 -0.000001 -0.000001 -0.000026
  0Ne  1f+1      -0.000000 -0.000000  0.000001  0.000000 -0.000000 -0.007988
  0Ne  1f-1      -0.000000 -0.000000 -0.000000  0.000000 -0.000000  0.001575
  0Ne  1f+2      -0.000000  0.000000  0.000000 -0.000000  0.000000  0.043208
  0Ne  1f-2      -0.000000 -0.000000 -0.000000  0.000000  0.000000 -0.999013
  0Ne  1f+3      -0.000000  0.000000  0.000001  0.000000 -0.000000  0.006169
  0Ne  1f-3       0.000000  0.000000  0.000000 -0.000000  0.000001  0.001214
                     18        19        20        21        22        23
                   9.64739   9.64739   9.64739   9.64739   9.64739   9.64739
                   0.00000   0.00000   0.00000   0.00000   0.00000   0.00000
                  --------  --------  --------  --------  --------  --------
  0Ne  1s        -0.000000 -0.000000 -0.000000 -0.000000  0.000000  0.000000
  0Ne  2s        -0.000000 -0.000000 -0.000000 -0.000000  0.000000  0.000000
  0Ne  3s         0.000000  0.000000  0.000000  0.000000 -0.000000 -0.000000
  0Ne  4s         0.000000  0.000000  0.000000  0.000000 -0.000000 -0.000000
  0Ne  1pz       -0.000000 -0.000000 -0.000000 -0.000000  0.000000  0.000001
  0Ne  1px       -0.000000  0.000000 -0.000000  0.000001  0.000000  0.000000
  0Ne  1py        0.000000  0.000000  0.000000 -0.000000  0.000001 -0.000000
  0Ne  2pz        0.000000  0.000000  0.000000  0.000000 -0.000000 -0.000001
  0Ne  2px        0.000000 -0.000000  0.000000 -0.000001 -0.000000 -0.000000
  0Ne  2py       -0.000000 -0.000000 -0.000000  0.000000 -0.000001  0.000000
  0Ne  3pz       -0.000000 -0.000000 -0.000000 -0.000000  0.000000  0.000001
  0Ne  3px       -0.000000  0.000000 -0.000000  0.000001  0.000000  0.000000
  0Ne  3py        0.000000  0.000000  0.000000 -0.000000  0.000001 -0.000000
  0Ne  1dz2      -0.000000 -0.000000  0.000000 -0.000000 -0.000000  0.000000
  0Ne  1dxz       0.000000 -0.000000 -0.000000 -0.000000  0.000000  0.000000
  0Ne  1dyz      -0.000000  0.000000  0.000000  0.000000 -0.000000 -0.000000
  0Ne  1dx2y2     0.000000 -0.000000 -0.000000 -0.000000  0.000000 -0.000000
  0Ne  1dxy       0.000000  0.000000  0.000000 -0.000000 -0.000000  0.000000
  0Ne  2dz2       0.000000  0.000000 -0.000000  0.000000  0.000000  0.000000
  0Ne  2dxz      -0.000000  0.000000  0.000000  0.000000 -0.000000 -0.000000
  0Ne  2dyz       0.000000 -0.000000 -0.000000 -0.000000  0.000000  0.000000
  0Ne  2dx2y2    -0.000000 -0.000000  0.000000  0.000000 -0.000000 -0.000000
  0Ne  2dxy      -0.000000 -0.000000 -0.000000  0.000000  0.000000 -0.000000
  0Ne  1f0       -0.000017 -0.000003 -0.000008 -0.008126  0.010472  0.999912
  0Ne  1f+1       0.336252 -0.715770  0.002360 -0.582329 -0.188214 -0.002758
  0Ne  1f-1      -0.715784 -0.336236  0.006906  0.188151 -0.582314  0.007615
  0Ne  1f+2       0.006897  0.006052  0.999024  0.000002 -0.000006  0.000009
  0Ne  1f-2      -0.005798  0.008560  0.043196  0.000011 -0.000001 -0.000025
  0Ne  1f+3      -0.260108  0.553933 -0.001827 -0.752494 -0.243312 -0.003570
  0Ne  1f-3      -0.553941 -0.260130  0.005352 -0.243267  0.752447 -0.009867
                     24        25        26        27        28        29
                  11.57759  11.57759  11.57759  11.57759  11.57759  11.74424
                   0.00000   0.00000   0.00000   0.00000   0.00000   0.00000
                  --------  --------  --------  --------  --------  --------
  0Ne  1s        -0.000000  0.000000 -0.000000  0.000000 -0.000000 -2.322062
  0Ne  2s        -0.000000  0.000000 -0.000000  0.000000 -0.000000 -2.875151
  0Ne  3s         0.000000 -0.000000  0.000000 -0.000000  0.000000  2.407724
  0Ne  4s         0.000000 -0.000000  0.000000 -0.000000  0.000000  1.173530
  0Ne  1pz       -0.000000 -0.000000  0.000000 -0.000000 -0.000000 -0.000000
  0Ne  1px       -0.000000  0.000000  0.000000  0.000000  0.000000 -0.000000
  0Ne  1py        0.000000 -0.000000 -0.000000 -0.000000  0.000000  0.000000
  0Ne  2pz        0.000000  0.000000 -0.000000  0.000000 -0.000000  0.000000
  0Ne  2px        0.000000 -0.000000  0.000000 -0.000000 -0.000000  0.000000
  0Ne  2py       -0.000000  0.000000  0.000000  0.000000 -0.000000 -0.000000
  0Ne  3pz       -0.000000 -0.000000  0.000000 -0.000000  0.000000 -0.000000
  0Ne  3px       -0.000000 -0.000000 -0.000000  0.000000  0.000000 -0.000000
  0Ne  3py        0.000000 -0.000000  0.000000 -0.000000  0.000000  0.000000
  0Ne  1dz2       0.000021  0.000018  0.000014 -0.714565  0.907792 -0.000000
  0Ne  1dxz      -0.688206 -0.300857  0.877808 -0.000006  0.000003  0.000000
  0Ne  1dyz       0.707703  0.536693  0.738787  0.000006 -0.000033 -0.000000
  0Ne  1dx2y2     0.000119 -0.000175  0.000037  0.907792  0.714565 -0.000000
  0Ne  1dxy      -0.600182  0.977822 -0.135410  0.000170  0.000131  0.000000
  0Ne  2dz2      -0.000010 -0.000009 -0.000007  0.342254 -0.434804  0.000000
  0Ne  2dxz       0.329629  0.144101 -0.420442  0.000003 -0.000002 -0.000000
  0Ne  2dyz      -0.338967 -0.257059 -0.353856 -0.000003  0.000016  0.000000
  0Ne  2dx2y2    -0.000057  0.000084 -0.000018 -0.434804 -0.342254  0.000000
  0Ne  2dxy       0.287468 -0.468345  0.064857 -0.000081 -0.000063 -0.000000
  0Ne  1f0        0.000000  0.000000  0.000000  0.000000 -0.000000  0.000000
  0Ne  1f+1       0.000000 -0.000000  0.000000 -0.000000 -0.000000  0.000000
  0Ne  1f-1      -0.000000  0.000000 -0.000000  0.000000  0.000000 -0.000000
  0Ne  1f+2      -0.000000 -0.000000  0.000000  0.000000  0.000000 -0.000000
  0Ne  1f-2      -0.000000 -0.000000 -0.000000  0.000000 -0.000000  0.000000
  0Ne  1f+3       0.000000 -0.000000 -0.000000 -0.000000 -0.000000  0.000000
  0Ne  1f-3       0.000000  0.000000  0.000000 -0.000000 -0.000000  0.000000

MULLIKEN ATOMIC CHARGES
-----------------------
   0 Ne:   -0.000000
Sum of atomic charges:   -0.0000000

LOEWDIN ATOMIC CHARGES
----------------------
   0 Ne:    0.000000

E(0)                                       ...   -128.531815423
E(0)                                       ...   -128.531815423
E(CORR)(strong-pairs)                      ...     -0.258785684
E(CORR)(weak-pairs)                        ...     -0.000025783
E(CORR)(corrected)                         ...     -0.258811467
E(TOT)                                     ...   -128.790626890
E(CCSD(T))                                 ...   -128.794480442
FINAL SINGLE POINT ENERGY      -128.794480442037

DIPOLE MOMENT
-------------
                                X             Y             Z
Electronic contribution:     -0.00000      -0.00000      -0.00000
Nuclear contribution   :      0.00000       0.00000       0.00000
                        -----------------------------------------
Total Dipole Moment    :     -0.00000      -0.00000      -0.00000
                        -----------------------------------------
Magnitude (a.u.)       :      0.00000
Magnitude (Debye)      :      0.00000

Rotational constants in cm-1:     0.000000     0.000000     0.000000
Rotational constants in MHz :     0.000000     0.000000     0.000000

                             ****ORCA TERMINATED NORMALLY****
TOTAL RUN TIME: 0 days 0 hours 0 minutes 3 seconds 634 msec
