   * xtb version 6.3.1 (461a024) compiled by 'schneider@apollo14' on 2020-06-26
          program call               : xtb dmtca.xyz --ohess --gbsa water
          number of atoms            :                    15
          number of electrons        :                    54
          charge                     :                     0

   ID    Z sym.   atoms
    1    7 N      1
    2    6 C      2, 6, 10, 14
    3    1 H      3-5, 7-9
    4   17 Cl     11-13
    5    8 O      15

        Solvent                        water
        Solvent mass                       1.8000E+01 g/mol
          :  Hamiltonian                  GFN2-xTB          :
 * total energy  :   -32.2794365 Eh     change       -0.1247713E-10 Eh
   *** GEOMETRY OPTIMIZATION CONVERGED AFTER 1 ITERATIONS ***

 final structure:
================
15
 xtb: 6.3.1 (461a024)
N         0.55802326630675   -0.60935885423386   -0.70316202500944
C         0.95760011637990   -1.94636957972574   -0.32061494660645
H         0.11377756388179   -2.62402846120602   -0.25889596608415
H         1.46952856090013   -1.92300140855703    0.64337297693318
H         1.64744128462526   -2.31761485380693   -1.07744130191569
C         1.63161315945797    0.17565365119874   -1.28600539080603
H         1.29112498234953    1.19810023868858   -1.42897395859665
H         1.91635770557880   -0.24787489007984   -2.24902594555779
H         2.48959895311206    0.16418018298811   -0.61502714895631
C        -1.75028915975051   -0.84914205324210    0.15326560280921
Cl       -2.26482850295562   -2.20281457293091   -0.87908204063170
Cl       -1.26642238892484   -1.44167295796301    1.74521538284239
Cl       -3.16153765015259    0.21629286295403    0.37839961682101
C        -0.62079012411669   -0.02951277544994   -0.53242940694082
O        -0.89121172237658    1.11262538353070   -0.87896423410750

          :  Hamiltonian                  GFN2-xTB          :
         :: gradient norm              0.000711361037 Eh/a0 ::
         :: HOMO-LUMO gap              4.294489914680 eV    ::
         :: SCC energy               -32.489262026722 Eh    ::
         :: -> dispersion             -0.015269965515 Eh    ::
         :: -> Gsolv                  -0.013584866008 Eh    ::
         :: repulsion energy           0.209765304946 Eh    ::

    * Orbital Energies and Occupations

         #    Occupation            Energy/Eh            Energy/eV
      -------------------------------------------------------------
         1        2.0000           -1.0951712             -29.8011
       ...           ...                  ...                  ...
        15        2.0000           -0.5252211             -14.2920
        16        2.0000           -0.5165008             -14.0547
        17        2.0000           -0.4942824             -13.4501
        18        2.0000           -0.4881205             -13.2824
        19        2.0000           -0.4777068             -12.9991
        20        2.0000           -0.4708652             -12.8129
        21        2.0000           -0.4695586             -12.7773
        22        2.0000           -0.4592420             -12.4966
        23        2.0000           -0.4554055             -12.3922
        24        2.0000           -0.4508998             -12.2696
        25        2.0000           -0.4498907             -12.2421
        26        2.0000           -0.4263229             -11.6008
        27        2.0000           -0.4132292             -11.2445 (HOMO)
        28                         -0.2554096              -6.9500 (LUMO)
        29                         -0.2411863              -6.5630
        30                         -0.1905671              -5.1856
        31                         -0.1646375              -4.4800
        32                         -0.0584810              -1.5913
        33                         -0.0241945              -0.6584
        34                         -0.0231711              -0.6305
        35                         -0.0226551              -0.6165
        36                         -0.0213460              -0.5809
        37                         -0.0210833              -0.5737
        38                         -0.0208200              -0.5665
       ...                                ...                  ...
        57                          0.5726221              15.5818
      -------------------------------------------------------------
                  HL-Gap            0.1578196 Eh            4.2945 eV

     #   Z        covCN         q      C6AA      Î±(0)
     1   7 N      2.729    -0.032    21.872     6.946
     2   6 C      3.698    -0.095    22.490     6.783
     3   1 H      0.925     0.089     1.889     2.149
     4   1 H      0.924     0.096     1.824     2.112
     5   1 H      0.925     0.106     1.731     2.058
     6   6 C      3.713    -0.079    22.140     6.723
     7   1 H      0.925     0.089     1.889     2.149
     8   1 H      0.925     0.091     1.873     2.140
     9   1 H      0.925     0.095     1.829     2.115
    10   6 C      3.639     0.202    17.734     6.057
    11  17 Cl     1.222    -0.112   102.680    15.503
    12  17 Cl     1.226    -0.102   102.369    15.479
    13  17 Cl     1.276    -0.131   103.270    15.547
    14   6 C      2.839     0.262    22.592     7.789
    15   8 O      0.861    -0.478    23.298     6.472

Wiberg/Mayer (AO) data.
largest (>0.10) Wiberg bond orders for each atom
          total WBO             WBO to atom ...

molecular dipole:
                 x           y           z       tot (Debye)
 q only:        2.496      -1.355      -0.243
   full:        1.920      -1.068      -0.198       5.607

 projected vibrational frequencies (cm-1)
eigval :       -0.00    -0.00    -0.00     0.00     0.00     0.00
eigval :       69.70    81.73   137.31   143.67   156.16   197.11
eigval :      234.87   244.03   246.08   281.92   286.45   382.01
eigval :      414.01   461.31   582.06   642.35   711.90   719.73
eigval :      828.23   965.65  1043.69  1078.11  1113.15  1118.01
eigval :     1243.36  1389.77  1392.80  1420.55  1444.24  1451.40
eigval :     1459.86  1469.31  1695.03  2986.90  3002.43  3014.55
eigval :     3022.41  3056.66  3088.98

   temp. (K)  partition function   enthalpy   heat capacity  entropy
                                   cal/mol     cal/K/mol   cal/K/mol   J/K/mol
 298.15  VIB  0.146E+04             5106.095     31.197     31.300
         ROT  0.982E+06              888.752      2.981     30.401
         INT  0.143E+10             5994.848     34.178     61.701
         TR   0.254E+28             1481.254      4.968     41.619
         TOT                        7476.1015    39.1460   103.3204   432.2925

       T/K    H(0)-H(T)+PV         H(T)/Eh          T*S/Eh         G(T)/Eh
   ------------------------------------------------------------------------
    298.15    0.119139E-01    0.110507E+00    0.490908E-01    0.614165E-01
   ------------------------------------------------------------------------

         :::::::::::::::::::::::::::::::::::::::::::::::::::::
         ::                  THERMODYNAMIC                  ::
         :::::::::::::::::::::::::::::::::::::::::::::::::::::
         :: total free energy         -32.218020034358 Eh   ::
         ::.................................................::
         :: total energy              -32.279436533639 Eh   ::
         :: zero point energy           0.098593422511 Eh   ::
         :: G(RRHO) w/o ZPVE           -0.037176923230 Eh   ::
         :: G(RRHO) contrib.            0.061416499281 Eh   ::
         :::::::::::::::::::::::::::::::::::::::::::::::::::::

           -------------------------------------------------
          | TOTAL ENERGY              -32.279436533639 Eh   |
          | TOTAL ENTHALPY            -32.168929185026 Eh   |
          | TOTAL FREE ENERGY         -32.218020034358 Eh   |
          | GRADIENT NORM               0.000711273784 Eh/Î± |
          | HOMO-LUMO GAP               4.294489613318 eV   |
           -------------------------------------------------

 * finished run on 2020/07/06 at 12:35:36.052
