                         Program Version 4.2.1 -  RELEASE  -
|  1> ! BLYP D4 def2-TZVP RI def2/J TightSCF Grid4 FinalGrid5 PrintBasis PrintMOs
|  2> %maxcore 1150
|  3>
|  4> * xyzfile 0 1 init.xyz
|  5>
|  6> %cpcm
|  7>  smd true
|  8>  smdsolvent "water"
|  9> end
| 10>
| 11>                          ****END OF INPUT****

CARTESIAN COORDINATES (ANGSTROEM)
---------------------------------
  Ne     0.000000    0.000000    0.000000

 Total Charge           Charge          ....    0
 Multiplicity           Mult            ....    1
 Number of Electrons    NEL             ....   10
 Basis Dimension        Dim             ....   31

ORBITAL ENERGIES
----------------

  NO   OCC          E(Eh)            E(eV)
   0   2.0000     -30.516019      -830.3831
   1   2.0000      -1.319167       -35.8964
   2   2.0000      -0.481837       -13.1114
   3   2.0000      -0.481837       -13.1114
   4   2.0000      -0.481837       -13.1114
   5   0.0000       0.548250        14.9186
   6   0.0000       0.584703        15.9106
   7   0.0000       0.584703        15.9106
   8   0.0000       0.584703        15.9106
   9   0.0000       2.398867        65.2765

------------------
MOLECULAR ORBITALS
------------------
                      0         1         2         3         4         5
                 -30.51602  -1.31917  -0.48184  -0.48184  -0.48184   0.54825
                   2.00000   2.00000   2.00000   2.00000   2.00000   0.00000
                  --------  --------  --------  --------  --------  --------
  0Ne  1s         0.418112 -0.108431 -0.000000 -0.000000  0.000000 -0.059223
  0Ne  2s         0.655619 -0.268827 -0.000000 -0.000000  0.000000 -0.131029
  0Ne  3s         0.032642  0.385168 -0.000000 -0.000000 -0.000000 -0.055264
  0Ne  4s        -0.015386  0.513511  0.000000  0.000000 -0.000000  1.784264
  0Ne  5s         0.004749  0.245059 -0.000000 -0.000000  0.000000 -1.959076
  0Ne  1pz        0.000000 -0.000000 -0.535705 -0.002645  0.024290  0.000000
  0Ne  1px        0.000000 -0.000000 -0.024355  0.015090 -0.535496 -0.000000
  0Ne  1py       -0.000000 -0.000000 -0.001958  0.536043  0.015195 -0.000000
  0Ne  2pz       -0.000000 -0.000000 -0.403921 -0.001994  0.018315  0.000000
  0Ne  2px       -0.000000 -0.000000 -0.018364  0.011378 -0.403763 -0.000000
  0Ne  2py        0.000000  0.000000 -0.001476  0.404175  0.011457 -0.000000
  0Ne  3pz        0.000000  0.000000 -0.273721 -0.001351  0.012411 -0.000000
  0Ne  3px        0.000000  0.000000 -0.012444  0.007710 -0.273614  0.000000
  0Ne  3py       -0.000000 -0.000000 -0.001000  0.273894  0.007764  0.000000
  0Ne  1dz2       0.000000 -0.000000  0.000000 -0.000000  0.000000  0.000000
  0Ne  1dxz       0.000000  0.000000 -0.000000 -0.000000  0.000000  0.000000
  0Ne  1dyz      -0.000000  0.000000 -0.000000 -0.000000 -0.000000  0.000000
  0Ne  1dx2y2    -0.000000  0.000000  0.000000 -0.000000 -0.000000  0.000000
  0Ne  1dxy       0.000000  0.000000 -0.000000  0.000000 -0.000000 -0.000000
  0Ne  2dz2      -0.000000  0.000000 -0.000000  0.000000 -0.000000 -0.000000
  0Ne  2dxz      -0.000000  0.000000  0.000000  0.000000 -0.000000  0.000000
  0Ne  2dyz       0.000000 -0.000000  0.000000  0.000000  0.000000 -0.000000
  0Ne  2dx2y2     0.000000 -0.000000 -0.000000  0.000000  0.000000 -0.000000
  0Ne  2dxy       0.000000 -0.000000  0.000000 -0.000000  0.000000  0.000000
  0Ne  1f0        0.000000 -0.000000 -0.000000 -0.000000  0.000000  0.000000
  0Ne  1f+1      -0.000000  0.000000 -0.000000 -0.000000  0.000000 -0.000000
  0Ne  1f-1      -0.000000 -0.000000  0.000000 -0.000000  0.000000  0.000000
  0Ne  1f+2      -0.000000 -0.000000  0.000000  0.000000  0.000000  0.000000
  0Ne  1f-2      -0.000000  0.000000  0.000000  0.000000 -0.000000  0.000000
  0Ne  1f+3      -0.000000  0.000000 -0.000000 -0.000000  0.000000 -0.000000
  0Ne  1f-3      -0.000000 -0.000000  0.000000  0.000000  0.000000  0.000000
                      6         7         8         9        10        11
                   0.58470   0.58470   0.58470   2.39887   2.39887   2.39887
                   0.00000   0.00000   0.00000   0.00000   0.00000   0.00000
                  --------  --------  --------  --------  --------  --------
  0Ne  1s        -0.000000 -0.000000 -0.000000 -0.000000  0.000000  0.000000
  0Ne  2s        -0.000000 -0.000000 -0.000000 -0.000000  0.000000  0.000000
  0Ne  3s        -0.000000 -0.000000 -0.000000  0.000000 -0.000000 -0.000000
  0Ne  4s         0.000000  0.000000  0.000000  0.000000  0.000000  0.000000
  0Ne  5s        -0.000000 -0.000000 -0.000000 -0.000000 -0.000000 -0.000000
  0Ne  1pz        0.003354 -0.034556 -0.311506 -0.000000  0.000000 -0.000000
  0Ne  1px        0.313390  0.004452  0.002880 -0.000000 -0.000000  0.000000
  0Ne  1py       -0.004107  0.311492 -0.034598 -0.000000 -0.000000  0.000000
  0Ne  2pz        0.006421 -0.066164 -0.596443  0.000000 -0.000000  0.000000
  0Ne  2px        0.600050  0.008524  0.005514  0.000000  0.000000 -0.000000
  0Ne  2py       -0.007863  0.596416 -0.066246  0.000000  0.000000 -0.000000
  0Ne  3pz       -0.012988  0.133827  1.206400 -0.000000 -0.000000  0.000000
  0Ne  3px       -1.213696 -0.017240 -0.011154  0.000000 -0.000000 -0.000000
  0Ne  3py        0.015905 -1.206346  0.133992  0.000000  0.000000 -0.000000
  0Ne  1dz2      -0.000000 -0.000000 -0.000000  0.000373  0.000114  0.000052
  0Ne  1dxz       0.000000 -0.000000 -0.000000 -0.000002  0.000002 -0.000006
  0Ne  1dyz      -0.000000  0.000000  0.000000 -0.000029 -0.000035  0.000284
  0Ne  1dx2y2    -0.000000  0.000000  0.000000  0.000120 -0.000373 -0.000040
  0Ne  1dxy       0.000000  0.000000 -0.000000 -0.000024 -0.000040  0.000264
  0Ne  2dz2       0.000000  0.000000  0.000000  0.947422  0.290604  0.132380
  0Ne  2dxz      -0.000000  0.000000  0.000000 -0.004383  0.006106 -0.015071
  0Ne  2dyz       0.000000 -0.000000 -0.000000 -0.074483 -0.090198  0.722021
  0Ne  2dx2y2     0.000000 -0.000000 -0.000000  0.304456 -0.946843 -0.100772
  0Ne  2dxy      -0.000000 -0.000000  0.000000 -0.061133 -0.102322  0.671107
  0Ne  1f0        0.000000  0.000000  0.000000 -0.000000 -0.000000 -0.000000
  0Ne  1f+1       0.000000  0.000000  0.000000 -0.000000 -0.000000 -0.000000
  0Ne  1f-1       0.000000  0.000000 -0.000000  0.000000  0.000000 -0.000000
  0Ne  1f+2       0.000000 -0.000000 -0.000000 -0.000000  0.000000  0.000000
  0Ne  1f-2      -0.000000 -0.000000 -0.000000  0.000000  0.000000 -0.000000
  0Ne  1f+3       0.000000  0.000000  0.000000  0.000000 -0.000000 -0.000000
  0Ne  1f-3       0.000000 -0.000000  0.000000 -0.000000  0.000000  0.000000
                     12        13        14        15        16        17
                   2.39887   2.39887   3.68188   3.68188   3.68188   4.22459
                   0.00000   0.00000   0.00000   0.00000   0.00000   0.00000
                  --------  --------  --------  --------  --------  --------
  0Ne  1s         0.000000 -0.000000 -0.000000  0.000000  0.000000  0.132381
  0Ne  2s         0.000000 -0.000000 -0.000000  0.000000  0.000000  0.469976
  0Ne  3s        -0.000000  0.000000  0.000000 -0.000000 -0.000000 -2.856551
  0Ne  4s         0.000000 -0.000000 -0.000000  0.000000  0.000000  3.663629
  0Ne  5s        -0.000000 -0.000000  0.000000 -0.000000 -0.000000 -1.478350
  0Ne  1pz        0.000000  0.000000  1.145794  0.141717  0.068237  0.000000
  0Ne  1px        0.000000  0.000000  0.157105 -1.055482 -0.445937  0.000000
  0Ne  1py        0.000000 -0.000000 -0.007631 -0.451063  1.064926 -0.000000
  0Ne  2pz       -0.000000 -0.000000 -1.572101 -0.194445 -0.093625 -0.000000
  0Ne  2px       -0.000000  0.000000 -0.215557  1.448187  0.611854 -0.000000
  0Ne  2py       -0.000000  0.000000  0.010471  0.618887 -1.461145  0.000000
  0Ne  3pz       -0.000000 -0.000000  0.707099  0.087457  0.042111  0.000000
  0Ne  3px       -0.000000 -0.000000  0.096953 -0.651365 -0.275199  0.000000
  0Ne  3py        0.000000 -0.000000 -0.004709 -0.278363  0.657193 -0.000000
  0Ne  1dz2       0.000001  0.000001 -0.000000 -0.000000  0.000000  0.000000
  0Ne  1dxz       0.000375  0.000118 -0.000000  0.000000  0.000000 -0.000000
  0Ne  1dyz      -0.000076  0.000257  0.000000  0.000000 -0.000000  0.000000
  0Ne  1dx2y2     0.000000  0.000006  0.000000  0.000000 -0.000000  0.000000
  0Ne  1dxy       0.000090 -0.000273 -0.000000  0.000000 -0.000000  0.000000
  0Ne  2dz2       0.003670  0.002917  0.000000 -0.000000  0.000000 -0.000000
  0Ne  2dxz       0.953875  0.299072 -0.000000  0.000000  0.000000 -0.000000
  0Ne  2dyz      -0.193295  0.653640  0.000000  0.000000 -0.000000  0.000000
  0Ne  2dx2y2     0.000965  0.015635  0.000000  0.000000 -0.000000  0.000000
  0Ne  2dxy       0.228802 -0.694740 -0.000000  0.000000 -0.000000 -0.000000
  0Ne  1f0        0.000000  0.000000  0.000000  0.000000  0.000000  0.000000
  0Ne  1f+1      -0.000000 -0.000000  0.000000  0.000000  0.000000  0.000000
  0Ne  1f-1       0.000000 -0.000000 -0.000000  0.000000 -0.000000  0.000000
  0Ne  1f+2      -0.000000 -0.000000  0.000000  0.000000  0.000000  0.000000
  0Ne  1f-2      -0.000000  0.000000 -0.000000 -0.000000  0.000000 -0.000000
  0Ne  1f+3       0.000000 -0.000000  0.000000  0.000000  0.000000 -0.000000
  0Ne  1f-3       0.000000 -0.000000 -0.000000 -0.000000  0.000000  0.000000
                     18        19        20        21        22        23
                   8.90001   8.90001   8.90001   8.90001   8.90001   8.90001
                   0.00000   0.00000   0.00000   0.00000   0.00000   0.00000
                  --------  --------  --------  --------  --------  --------
  0Ne  1s         0.000000  0.000000  0.000000 -0.000000 -0.000000 -0.000000
  0Ne  2s        -0.000000  0.000000  0.000000  0.000000 -0.000000 -0.000000
  0Ne  3s         0.000000 -0.000000 -0.000000 -0.000000  0.000000  0.000000
  0Ne  4s        -0.000000  0.000000  0.000000  0.000000 -0.000000 -0.000000
  0Ne  5s        -0.000000 -0.000000  0.000000 -0.000000  0.000000  0.000000
  0Ne  1pz       -0.000000 -0.000000  0.000000  0.000000  0.000000 -0.000000
  0Ne  1px        0.000000 -0.000000 -0.000000 -0.000000 -0.000000  0.000000
  0Ne  1py        0.000000 -0.000000  0.000000  0.000000 -0.000000  0.000000
  0Ne  2pz        0.000000  0.000000 -0.000000 -0.000000 -0.000000  0.000000
  0Ne  2px       -0.000000  0.000000  0.000000  0.000000  0.000000 -0.000000
  0Ne  2py       -0.000000  0.000000 -0.000000 -0.000000  0.000000 -0.000000
  0Ne  3pz       -0.000000 -0.000000  0.000000  0.000000  0.000000 -0.000000
  0Ne  3px        0.000000 -0.000000 -0.000000 -0.000000 -0.000000  0.000000
  0Ne  3py        0.000000 -0.000000  0.000000  0.000000 -0.000000  0.000000
  0Ne  1dz2       0.000000  0.000000  0.000000  0.000000  0.000000 -0.000000
  0Ne  1dxz      -0.000000 -0.000000  0.000000 -0.000000 -0.000000 -0.000000
  0Ne  1dyz       0.000000  0.000000 -0.000000 -0.000000 -0.000000  0.000000
  0Ne  1dx2y2     0.000000  0.000000  0.000000 -0.000000 -0.000000  0.000000
  0Ne  1dxy       0.000000  0.000000  0.000000 -0.000000  0.000000 -0.000000
  0Ne  2dz2       0.000000 -0.000000 -0.000000 -0.000000 -0.000000  0.000000
  0Ne  2dxz       0.000000  0.000000 -0.000000  0.000000  0.000000  0.000000
  0Ne  2dyz      -0.000000 -0.000000  0.000000  0.000000  0.000000 -0.000000
  0Ne  2dx2y2    -0.000000 -0.000000 -0.000000  0.000000  0.000000 -0.000000
  0Ne  2dxy      -0.000000 -0.000000 -0.000000  0.000000 -0.000000  0.000000
  0Ne  1f0        0.000007  0.000001  0.000009 -0.000001 -0.136057  0.990701
  0Ne  1f+1       0.922678 -0.027653 -0.381178 -0.051023 -0.000034 -0.000008
  0Ne  1f-1       0.036814 -0.984895  0.150112  0.078062 -0.000002 -0.000001
  0Ne  1f+2      -0.242254 -0.099267 -0.574895 -0.032659  0.767291  0.105377
  0Ne  1f-2       0.015540  0.042846 -0.049675  0.628864  0.006856  0.001507
  0Ne  1f+3      -0.296680 -0.121545 -0.703915 -0.039992 -0.626638 -0.086046
  0Ne  1f-3      -0.019028 -0.052488  0.060836 -0.770173  0.005602  0.001229
                     24        25        26        27        28        29
                   8.90001  10.36046  10.36046  10.36046  10.36046  10.36046
                   0.00000   0.00000   0.00000   0.00000   0.00000   0.00000
                  --------  --------  --------  --------  --------  --------
  0Ne  1s         0.000000  0.000000 -0.000000  0.000000  0.000000  0.000000
  0Ne  2s        -0.000000  0.000000 -0.000000  0.000000  0.000000  0.000000
  0Ne  3s        -0.000000 -0.000000  0.000000 -0.000000 -0.000000 -0.000000
  0Ne  4s         0.000000  0.000000 -0.000000  0.000000  0.000000  0.000000
  0Ne  5s        -0.000000 -0.000000  0.000000 -0.000000 -0.000000  0.000000
  0Ne  1pz       -0.000000 -0.000000 -0.000000 -0.000000  0.000000  0.000000
  0Ne  1px       -0.000000  0.000000  0.000000  0.000000  0.000000  0.000000
  0Ne  1py        0.000000  0.000000  0.000000  0.000000 -0.000000  0.000000
  0Ne  2pz        0.000000  0.000000  0.000000  0.000000 -0.000000 -0.000000
  0Ne  2px        0.000000 -0.000000 -0.000000 -0.000000 -0.000000 -0.000000
  0Ne  2py       -0.000000 -0.000000 -0.000000 -0.000000  0.000000 -0.000000
  0Ne  3pz       -0.000000 -0.000000 -0.000000 -0.000000  0.000000  0.000000
  0Ne  3px       -0.000000  0.000000  0.000000  0.000000  0.000000  0.000000
  0Ne  3py        0.000000  0.000000  0.000000  0.000000 -0.000000  0.000000
  0Ne  1dz2       0.000000 -1.134689 -0.167959  0.128008 -0.052701  0.026130
  0Ne  1dxz       0.000000 -0.000876 -0.000568  0.030987  0.588760  0.993969
  0Ne  1dyz      -0.000000  0.085928  0.117304  0.427795 -0.920916  0.532295
  0Ne  1dx2y2     0.000000 -0.192435  1.114263 -0.238294  0.013293  0.000022
  0Ne  1dxy       0.000000  0.060339  0.228083  1.038478  0.371344 -0.252150
  0Ne  2dz2      -0.000000  0.569105  0.084240 -0.064203  0.026432 -0.013106
  0Ne  2dxz      -0.000000  0.000439  0.000285 -0.015541 -0.295294 -0.498527
  0Ne  2dyz       0.000000 -0.043097 -0.058834 -0.214561  0.461887 -0.266973
  0Ne  2dx2y2    -0.000000  0.096516 -0.558861  0.119517 -0.006667 -0.000011
  0Ne  2dxy      -0.000000 -0.030263 -0.114395 -0.520850 -0.186248  0.126466
  0Ne  1f0        0.000722 -0.000000 -0.000000  0.000000  0.000000  0.000000
  0Ne  1f+1       0.000003 -0.000000  0.000000 -0.000000  0.000000  0.000000
  0Ne  1f-1       0.000009  0.000000  0.000000  0.000000 -0.000000  0.000000
  0Ne  1f+2       0.006999 -0.000000  0.000000 -0.000000 -0.000000  0.000000
  0Ne  1f-2      -0.774555  0.000000  0.000000  0.000000  0.000000 -0.000000
  0Ne  1f+3      -0.005715 -0.000000  0.000000  0.000000 -0.000000 -0.000000
  0Ne  1f-3      -0.632441 -0.000000 -0.000000  0.000000  0.000000 -0.000000
                     30
                  70.79922
                   0.00000
                  --------
  0Ne  1s         1.389445
  0Ne  2s        -1.668985
  0Ne  3s         1.332681
  0Ne  4s        -1.085963
  0Ne  5s         0.375913
  0Ne  1pz       -0.000000
  0Ne  1px       -0.000000
  0Ne  1py       -0.000000
  0Ne  2pz        0.000000
  0Ne  2px        0.000000
  0Ne  2py       -0.000000
  0Ne  3pz       -0.000000
  0Ne  3px       -0.000000
  0Ne  3py        0.000000
  0Ne  1dz2       0.000000
  0Ne  1dxz      -0.000000
  0Ne  1dyz       0.000000
  0Ne  1dx2y2     0.000000
  0Ne  1dxy       0.000000
  0Ne  2dz2       0.000000
  0Ne  2dxz       0.000000
  0Ne  2dyz      -0.000000
  0Ne  2dx2y2    -0.000000
  0Ne  2dxy       0.000000
  0Ne  1f0        0.000000
  0Ne  1f+1       0.000000
  0Ne  1f-1       0.000000
  0Ne  1f+2       0.000000
  0Ne  1f-2       0.000000
  0Ne  1f+3      -0.000000
  0Ne  1f-3       0.000000

MULLIKEN ATOMIC CHARGES
-----------------------
   0 Ne:   -0.000000
Sum of atomic charges:   -0.0000000

LOEWDIN ATOMIC CHARGES
----------------------
   0 Ne:   -0.000000

Dispersion correction            0.000000000
FINAL SINGLE POINT ENERGY      -128.963728046945

DIPOLE MOMENT
-------------
                                X             Y             Z
Electronic contribution:      0.00000       0.00000      -0.00000
Nuclear contribution   :      0.00000       0.00000       0.00000
                        -----------------------------------------
Total Dipole Moment    :      0.00000       0.00000      -0.00000
                        -----------------------------------------
Magnitude (a.u.)       :      0.00000
Magnitude (Debye)      :      0.00000

Rotational constants in cm-1:     0.000000     0.000000     0.000000
Rotational constants in MHz :     0.000000     0.000000     0.000000

                             ****ORCA TERMINATED NORMALLY****
TOTAL RUN TIME: 0 days 0 hours 0 minutes 2 seconds 320 msec
