                         Program Version 4.2.1 -  RELEASE  -
|  1> ! BLYP D4 def2-TZVP RI def2/J TightSCF Grid4 FinalGrid5 PrintBasis PrintMOs
|  2> %maxcore 1150
|  3>
|  4> * xyzfile 0 1 init.xyz
|  5>
|  6>                          ****END OF INPUT****

CARTESIAN COORDINATES (ANGSTROEM)
---------------------------------
  Ne     0.000000    0.000000    0.000000

 Total Charge           Charge          ....    0
 Multiplicity           Mult            ....    1
 Number of Electrons    NEL             ....   10
 Basis Dimension        Dim             ....   31

ORBITAL ENERGIES
----------------

  NO   OCC          E(Eh)            E(eV)
   0   2.0000     -30.517859      -830.4332
   1   2.0000      -1.321010       -35.9465
   2   2.0000      -0.483678       -13.1616
   3   2.0000      -0.483678       -13.1616
   4   2.0000      -0.483678       -13.1616
   5   0.0000       0.546411        14.8686
   6   0.0000       0.582886        15.8611
   7   0.0000       0.582886        15.8611
   8   0.0000       0.582886        15.8611
   9   0.0000       2.397021        65.2263

------------------
MOLECULAR ORBITALS
------------------
                      0         1         2         3         4         5
                 -30.51786  -1.32101  -0.48368  -0.48368  -0.48368   0.54641
                   2.00000   2.00000   2.00000   2.00000   2.00000   0.00000
                  --------  --------  --------  --------  --------  --------
  0Ne  1s         0.418112 -0.108431 -0.000000 -0.000000  0.000000 -0.059223
  0Ne  2s         0.655619 -0.268827 -0.000000 -0.000000  0.000000 -0.131029
  0Ne  3s         0.032642  0.385167 -0.000000 -0.000000 -0.000000 -0.055260
  0Ne  4s        -0.015386  0.513512  0.000000  0.000000 -0.000000  1.784259
  0Ne  5s         0.004749  0.245060 -0.000000 -0.000000  0.000000 -1.959073
  0Ne  1pz       -0.000000 -0.000000 -0.535704 -0.005586  0.023810  0.000000
  0Ne  1px        0.000000 -0.000000 -0.023950  0.014166 -0.535539 -0.000000
  0Ne  1py       -0.000000 -0.000000 -0.004950  0.536046  0.014400 -0.000000
  0Ne  2pz       -0.000000 -0.000000 -0.403925 -0.004212  0.017953  0.000000
  0Ne  2px       -0.000000 -0.000000 -0.018059  0.010681 -0.403801 -0.000000
  0Ne  2py        0.000000  0.000000 -0.003732  0.404182  0.010858 -0.000000
  0Ne  3pz        0.000000  0.000000 -0.273715 -0.002854  0.012166 -0.000000
  0Ne  3px        0.000000  0.000000 -0.012237  0.007238 -0.273631  0.000000
  0Ne  3py       -0.000000 -0.000000 -0.002529  0.273889  0.007358  0.000000
  0Ne  1dz2       0.000000 -0.000000  0.000000 -0.000000  0.000000  0.000000
  0Ne  1dxz       0.000000  0.000000 -0.000000 -0.000000  0.000000  0.000000
  0Ne  1dyz      -0.000000  0.000000 -0.000000 -0.000000 -0.000000  0.000000
  0Ne  1dx2y2    -0.000000  0.000000  0.000000 -0.000000 -0.000000  0.000000
  0Ne  1dxy       0.000000  0.000000 -0.000000  0.000000 -0.000000 -0.000000
  0Ne  2dz2      -0.000000  0.000000  0.000000  0.000000 -0.000000 -0.000000
  0Ne  2dxz      -0.000000  0.000000  0.000000 -0.000000  0.000000  0.000000
  0Ne  2dyz       0.000000 -0.000000 -0.000000 -0.000000 -0.000000 -0.000000
  0Ne  2dx2y2     0.000000 -0.000000 -0.000000 -0.000000  0.000000 -0.000000
  0Ne  2dxy       0.000000 -0.000000  0.000000 -0.000000 -0.000000  0.000000
  0Ne  1f0        0.000000 -0.000000 -0.000000 -0.000000  0.000000  0.000000
  0Ne  1f+1      -0.000000  0.000000 -0.000000 -0.000000  0.000000 -0.000000
  0Ne  1f-1      -0.000000 -0.000000  0.000000 -0.000000  0.000000  0.000000
  0Ne  1f+2      -0.000000 -0.000000  0.000000  0.000000  0.000000  0.000000
  0Ne  1f-2      -0.000000  0.000000  0.000000  0.000000 -0.000000  0.000000
  0Ne  1f+3      -0.000000  0.000000 -0.000000 -0.000000  0.000000 -0.000000
  0Ne  1f-3      -0.000000 -0.000000  0.000000  0.000000  0.000000  0.000000
                      6         7         8         9        10        11
                   0.58289   0.58289   0.58289   2.39702   2.39702   2.39702
                   0.00000   0.00000   0.00000   0.00000   0.00000   0.00000
                  --------  --------  --------  --------  --------  --------
  0Ne  1s        -0.000000 -0.000000 -0.000000 -0.000000  0.000000  0.000000
  0Ne  2s        -0.000000 -0.000000 -0.000000 -0.000000  0.000000  0.000000
  0Ne  3s        -0.000000 -0.000000 -0.000000  0.000000 -0.000000 -0.000000
  0Ne  4s         0.000000  0.000000  0.000000  0.000000  0.000000  0.000000
  0Ne  5s        -0.000000 -0.000000 -0.000000 -0.000000 -0.000000 -0.000000
  0Ne  1pz        0.003345 -0.034554 -0.311510  0.000000  0.000000 -0.000000
  0Ne  1px        0.313394  0.004385  0.002879 -0.000000 -0.000000  0.000000
  0Ne  1py       -0.004040  0.311497 -0.034596 -0.000000 -0.000000  0.000000
  0Ne  2pz        0.006404 -0.066158 -0.596433  0.000000 -0.000000  0.000000
  0Ne  2px        0.600042  0.008395  0.005512  0.000000  0.000000 -0.000000
  0Ne  2py       -0.007736  0.596409 -0.066238  0.000000  0.000000 -0.000000
  0Ne  3pz       -0.012954  0.133817  1.206399 -0.000000 -0.000000  0.000000
  0Ne  3px       -1.213697 -0.016981 -0.011148  0.000000  0.000000 -0.000000
  0Ne  3py        0.015648 -1.206349  0.133980  0.000000  0.000000 -0.000000
  0Ne  1dz2      -0.000000 -0.000000  0.000000  0.000372  0.000114  0.000052
  0Ne  1dxz       0.000000 -0.000000 -0.000000 -0.000002  0.000002 -0.000006
  0Ne  1dyz      -0.000000  0.000000  0.000000 -0.000029 -0.000036  0.000284
  0Ne  1dx2y2    -0.000000  0.000000  0.000000  0.000120 -0.000372 -0.000040
  0Ne  1dxy       0.000000  0.000000 -0.000000 -0.000024 -0.000040  0.000264
  0Ne  2dz2       0.000000  0.000000  0.000000  0.947301  0.290950  0.132482
  0Ne  2dxz      -0.000000  0.000000  0.000000 -0.004545  0.006019 -0.015405
  0Ne  2dyz       0.000000 -0.000000 -0.000000 -0.074455 -0.090404  0.722538
  0Ne  2dx2y2     0.000000 -0.000000 -0.000000  0.304831 -0.946706 -0.100928
  0Ne  2dxy      -0.000000 -0.000000  0.000000 -0.061159 -0.102434  0.670499
  0Ne  1f0        0.000000  0.000000  0.000000 -0.000000 -0.000000 -0.000000
  0Ne  1f+1       0.000000  0.000000  0.000000 -0.000000 -0.000000 -0.000000
  0Ne  1f-1       0.000000  0.000000 -0.000000  0.000000  0.000000 -0.000000
  0Ne  1f+2       0.000000 -0.000000 -0.000000 -0.000000  0.000000  0.000000
  0Ne  1f-2      -0.000000 -0.000000 -0.000000  0.000000  0.000000 -0.000000
  0Ne  1f+3       0.000000  0.000000  0.000000  0.000000 -0.000000  0.000000
  0Ne  1f-3       0.000000 -0.000000  0.000000 -0.000000  0.000000  0.000000
                     12        13        14        15        16        17
                   2.39702   2.39702   3.68005   3.68005   3.68005   4.22275
                   0.00000   0.00000   0.00000   0.00000   0.00000   0.00000
                  --------  --------  --------  --------  --------  --------
  0Ne  1s         0.000000 -0.000000 -0.000000  0.000000  0.000000 -0.132381
  0Ne  2s         0.000000 -0.000000 -0.000000  0.000000  0.000000 -0.469976
  0Ne  3s        -0.000000  0.000000  0.000000 -0.000000 -0.000000  2.856551
  0Ne  4s         0.000000 -0.000000 -0.000000  0.000000  0.000000 -3.663632
  0Ne  5s        -0.000000 -0.000000  0.000000 -0.000000 -0.000000  1.478353
  0Ne  1pz        0.000000  0.000000  1.145664  0.140968  0.071868 -0.000000
  0Ne  1px        0.000000  0.000000  0.158057 -1.044153 -0.471533 -0.000000
  0Ne  1py        0.000000 -0.000000 -0.007410 -0.476921  1.053600  0.000000
  0Ne  2pz       -0.000000 -0.000000 -1.571926 -0.193417 -0.098607  0.000000
  0Ne  2px       -0.000000 -0.000000 -0.216864  1.432647  0.646975  0.000000
  0Ne  2py       -0.000000  0.000000  0.010167  0.654367 -1.445609 -0.000000
  0Ne  3pz       -0.000000 -0.000000  0.707025  0.086996  0.044352 -0.000000
  0Ne  3px       -0.000000 -0.000000  0.097542 -0.644380 -0.290998 -0.000000
  0Ne  3py       -0.000000 -0.000000 -0.004573 -0.294323  0.650210  0.000000
  0Ne  1dz2       0.000002  0.000001 -0.000000 -0.000000  0.000000 -0.000000
  0Ne  1dxz       0.000375  0.000118 -0.000000  0.000000  0.000000  0.000000
  0Ne  1dyz      -0.000076  0.000257  0.000000  0.000000 -0.000000 -0.000000
  0Ne  1dx2y2     0.000000  0.000006  0.000000  0.000000 -0.000000 -0.000000
  0Ne  1dxy       0.000090 -0.000273 -0.000000  0.000000 -0.000000 -0.000000
  0Ne  2dz2       0.003919  0.002862  0.000000 -0.000000  0.000000  0.000000
  0Ne  2dxz       0.953693  0.299636 -0.000000  0.000000  0.000000  0.000000
  0Ne  2dyz      -0.193290  0.653044  0.000000  0.000000 -0.000000 -0.000000
  0Ne  2dx2y2     0.000887  0.015629  0.000000  0.000000 -0.000000 -0.000000
  0Ne  2dxy       0.229563 -0.695058 -0.000000  0.000000 -0.000000  0.000000
  0Ne  1f0        0.000000 -0.000000  0.000000  0.000000  0.000000 -0.000000
  0Ne  1f+1      -0.000000 -0.000000  0.000000  0.000000  0.000000 -0.000000
  0Ne  1f-1       0.000000 -0.000000 -0.000000  0.000000 -0.000000 -0.000000
  0Ne  1f+2      -0.000000 -0.000000  0.000000  0.000000  0.000000 -0.000000
  0Ne  1f-2      -0.000000  0.000000 -0.000000 -0.000000  0.000000  0.000000
  0Ne  1f+3       0.000000 -0.000000  0.000000  0.000000  0.000000  0.000000
  0Ne  1f-3       0.000000 -0.000000 -0.000000 -0.000000  0.000000 -0.000000
                     18        19        20        21        22        23
                   8.89816   8.89816   8.89816   8.89816   8.89816   8.89816
                   0.00000   0.00000   0.00000   0.00000   0.00000   0.00000
                  --------  --------  --------  --------  --------  --------
  0Ne  1s        -0.000000 -0.000000 -0.000000 -0.000000  0.000000 -0.000000
  0Ne  2s        -0.000000 -0.000000 -0.000000 -0.000000 -0.000000 -0.000000
  0Ne  3s         0.000000  0.000000  0.000000  0.000000  0.000000  0.000000
  0Ne  4s        -0.000000 -0.000000 -0.000000 -0.000000 -0.000000 -0.000000
  0Ne  5s         0.000000  0.000000  0.000000  0.000000  0.000000  0.000000
  0Ne  1pz       -0.000000 -0.000000  0.000000 -0.000000  0.000000  0.000000
  0Ne  1px       -0.000000  0.000000  0.000000  0.000000  0.000000  0.000000
  0Ne  1py       -0.000000  0.000000  0.000000  0.000000  0.000000 -0.000000
  0Ne  2pz        0.000000  0.000000 -0.000000  0.000000 -0.000000 -0.000000
  0Ne  2px       -0.000000 -0.000000 -0.000000 -0.000000 -0.000000 -0.000000
  0Ne  2py        0.000000 -0.000000 -0.000000 -0.000000 -0.000000  0.000000
  0Ne  3pz        0.000000 -0.000000  0.000000 -0.000000  0.000000  0.000000
  0Ne  3px        0.000000  0.000000  0.000000  0.000000  0.000000  0.000000
  0Ne  3py       -0.000000  0.000000  0.000000  0.000000  0.000000 -0.000000
  0Ne  1dz2       0.000000  0.000000 -0.000000 -0.000000 -0.000000 -0.000000
  0Ne  1dxz      -0.000000 -0.000000  0.000000 -0.000000  0.000000 -0.000000
  0Ne  1dyz      -0.000000  0.000000 -0.000000  0.000000 -0.000000  0.000000
  0Ne  1dx2y2    -0.000000  0.000000  0.000000  0.000000  0.000000  0.000000
  0Ne  1dxy      -0.000000  0.000000 -0.000000  0.000000  0.000000 -0.000000
  0Ne  2dz2      -0.000000  0.000000  0.000000  0.000000 -0.000000  0.000000
  0Ne  2dxz       0.000000  0.000000 -0.000000  0.000000 -0.000000 -0.000000
  0Ne  2dyz       0.000000  0.000000  0.000000 -0.000000  0.000000 -0.000000
  0Ne  2dx2y2     0.000000 -0.000000 -0.000000 -0.000000 -0.000000 -0.000000
  0Ne  2dxy       0.000000 -0.000000  0.000000 -0.000000 -0.000000  0.000000
  0Ne  1f0       -0.088086  0.036070  0.011605  0.994663 -0.034021 -0.012337
  0Ne  1f+1       0.078236  0.957876 -0.042811 -0.023256  0.025403 -0.004083
  0Ne  1f-1       0.016395  0.045344  0.992606 -0.012474  0.023037 -0.107477
  0Ne  1f+2       0.992444 -0.079239 -0.011218  0.091478  0.015061  0.007168
  0Ne  1f-2       0.020534  0.036116  0.031183 -0.032968 -0.992190  0.102012
  0Ne  1f+3      -0.019757 -0.267199  0.019422  0.016552 -0.052628 -0.066174
  0Ne  1f-3      -0.009650 -0.011725  0.106256  0.014837  0.101136  0.986632
                     24        25        26        27        28        29
                   8.89816  10.35862  10.35862  10.35862  10.35862  10.35862
                   0.00000   0.00000   0.00000   0.00000   0.00000   0.00000
                  --------  --------  --------  --------  --------  --------
  0Ne  1s        -0.000000  0.000000 -0.000000  0.000000  0.000000  0.000000
  0Ne  2s        -0.000000  0.000000 -0.000000  0.000000  0.000000  0.000000
  0Ne  3s         0.000000 -0.000000  0.000000 -0.000000 -0.000000 -0.000000
  0Ne  4s        -0.000000  0.000000 -0.000000  0.000000  0.000000  0.000000
  0Ne  5s         0.000000 -0.000000  0.000000 -0.000000 -0.000000  0.000000
  0Ne  1pz        0.000000 -0.000000 -0.000000 -0.000000  0.000000  0.000000
  0Ne  1px       -0.000000  0.000000 -0.000000  0.000000  0.000000  0.000000
  0Ne  1py        0.000000  0.000000  0.000000  0.000000 -0.000000  0.000000
  0Ne  2pz       -0.000000  0.000000  0.000000  0.000000 -0.000000 -0.000000
  0Ne  2px        0.000000 -0.000000 -0.000000 -0.000000 -0.000000 -0.000000
  0Ne  2py       -0.000000 -0.000000 -0.000000 -0.000000  0.000000 -0.000000
  0Ne  3pz        0.000000 -0.000000 -0.000000 -0.000000  0.000000  0.000000
  0Ne  3px       -0.000000  0.000000  0.000000  0.000000  0.000000  0.000000
  0Ne  3py        0.000000  0.000000  0.000000  0.000000 -0.000000  0.000000
  0Ne  1dz2       0.000000 -1.134091 -0.171236  0.129207 -0.051867  0.026561
  0Ne  1dxz      -0.000000 -0.000273 -0.001120  0.032444  0.596963  0.989018
  0Ne  1dyz      -0.000000  0.084923  0.119065  0.423597 -0.918016  0.540369
  0Ne  1dx2y2     0.000000 -0.196180  1.113060 -0.240744  0.015116 -0.000020
  0Ne  1dxy       0.000000  0.060936  0.230594  1.039440  0.365429 -0.254390
  0Ne  2dz2      -0.000000  0.568805  0.085883 -0.064804  0.026014 -0.013321
  0Ne  2dxz       0.000000  0.000137  0.000562 -0.016272 -0.299408 -0.496043
  0Ne  2dyz       0.000000 -0.042593 -0.059717 -0.212456  0.460432 -0.271023
  0Ne  2dx2y2    -0.000000  0.098394 -0.558257  0.120745 -0.007581  0.000010
  0Ne  2dxy      -0.000000 -0.030563 -0.115655 -0.521333 -0.183281  0.127590
  0Ne  1f0        0.011881 -0.000000 -0.000000  0.000000  0.000000  0.000000
  0Ne  1f+1      -0.270770 -0.000000  0.000000 -0.000000  0.000000  0.000000
  0Ne  1f-1       0.013062  0.000000  0.000000  0.000000 -0.000000  0.000000
  0Ne  1f+2       0.001661 -0.000000  0.000000 -0.000000 -0.000000  0.000000
  0Ne  1f-2       0.036972  0.000000  0.000000  0.000000  0.000000 -0.000000
  0Ne  1f+3      -0.959382 -0.000000  0.000000  0.000000 -0.000000 -0.000000
  0Ne  1f-3      -0.067730 -0.000000  0.000000  0.000000  0.000000 -0.000000
                     30
                  70.79738
                   0.00000
                  --------
  0Ne  1s         1.389445
  0Ne  2s        -1.668985
  0Ne  3s         1.332681
  0Ne  4s        -1.085963
  0Ne  5s         0.375913
  0Ne  1pz       -0.000000
  0Ne  1px       -0.000000
  0Ne  1py       -0.000000
  0Ne  2pz        0.000000
  0Ne  2px        0.000000
  0Ne  2py       -0.000000
  0Ne  3pz       -0.000000
  0Ne  3px       -0.000000
  0Ne  3py        0.000000
  0Ne  1dz2       0.000000
  0Ne  1dxz      -0.000000
  0Ne  1dyz       0.000000
  0Ne  1dx2y2     0.000000
  0Ne  1dxy       0.000000
  0Ne  2dz2       0.000000
  0Ne  2dxz       0.000000
  0Ne  2dyz      -0.000000
  0Ne  2dx2y2    -0.000000
  0Ne  2dxy       0.000000
  0Ne  1f0        0.000000
  0Ne  1f+1       0.000000
  0Ne  1f-1       0.000000
  0Ne  1f+2       0.000000
  0Ne  1f-2       0.000000
  0Ne  1f+3      -0.000000
  0Ne  1f-3       0.000000

MULLIKEN ATOMIC CHARGES
-----------------------
   0 Ne:    0.000000
Sum of atomic charges:    0.0000000

LOEWDIN ATOMIC CHARGES
----------------------
   0 Ne:    0.000000

Dispersion correction            0.000000000
FINAL SINGLE POINT ENERGY      -128.963722995612

DIPOLE MOMENT
-------------
                                X             Y             Z
Electronic contribution:      0.00000       0.00000      -0.00000
Nuclear contribution   :      0.00000       0.00000       0.00000
                        -----------------------------------------
Total Dipole Moment    :      0.00000       0.00000      -0.00000
                        -----------------------------------------
Magnitude (a.u.)       :      0.00000
Magnitude (Debye)      :      0.00000

Rotational constants in cm-1:     0.000000     0.000000     0.000000
Rotational constants in MHz :     0.000000     0.000000     0.000000

                             ****ORCA TERMINATED NORMALLY****
TOTAL RUN TIME: 0 days 0 hours 0 minutes 1 seconds 413 msec
